Program Version,EnergyPlus, Version 9.2.0-921312fa1d, YMD=2020.12.22 18:28
1,5,Environment Title[],Latitude[deg],Longitude[deg],Time Zone[],Elevation[m]
2,8,Day of Simulation[],Month[],Day of Month[],DST Indicator[1=yes 0=no],Hour[],StartMinute[],EndMinute[],DayType
3,5,Cumulative Day of Simulation[],Month[],Day of Month[],DST Indicator[1=yes 0=no],DayType  ! When Daily Meters Requested
4,2,Cumulative Days of Simulation[],Month[]  ! When Monthly Meters Requested
5,1,Cumulative Days of Simulation[] ! When Run Period Meters Requested
6,1,Calendar Year of Simulation[] ! When Annual Meters Requested
9,1,Electricity:Facility [J] !Hourly
1021,1,Heating:Electricity [J] !Hourly
968,1,Cooling:Electricity [J] !Hourly
45,1,InteriorLights:Electricity [J] !Hourly
918,1,ExteriorLights:Electricity [J] !Hourly
107,1,InteriorEquipment:Electricity [J] !Hourly
878,1,Fans:Electricity [J] !Hourly
1039,1,Pumps:Electricity [J] !Hourly
304,1,Refrigeration:Electricity [J] !Hourly
170,1,Gas:Facility [J] !Hourly
1008,1,Heating:Gas [J] !Hourly
206,1,InteriorEquipment:Gas [J] !Hourly
486,1,WaterSystems:Gas [J] !Hourly
623,1,Heating:EnergyTransfer [J] !Hourly
648,1,Cooling:EnergyTransfer [J] !Hourly
729,1,WaterSystems:EnergyTransfer [J] !Hourly
279,1,Refrigeration:EnergyTransfer [J] !Hourly
983,1,HeatingCoils:EnergyTransfer [J] !Hourly
955,1,CoolingCoils:EnergyTransfer [J] !Hourly
End of Data Dictionary
1,RUNPERIOD 1,  41.98, -87.92,  -6.00, 201.00
2,1, 1, 1, 0, 1, 0.00,60.00,Holiday
9,101673307.6058673
45,20186052.19281932
107,29481120.0
170,556299232.3144852
206,12023568.0
279,12217745.907501959
304,5030429.876810126
486,27024007.258650397
623,91801548.21674295
648,135006.44755930134
729,21409547.745873635
878,28684105.52327201
918,18291600.0
955,0.0
968,0.0
983,403456292.5035512
1008,517251657.05583479
1021,0.0
1039,0.012965856852085596
2,1, 1, 1, 0, 2, 0.00,60.00,Holiday
9,73877899.16574148
45,6728684.064273106
107,26964720.0
170,210154786.49918706
206,12023568.0
279,10158622.089578379
304,4477545.319481801
486,72000.0
623,36302438.03735185
648,0.0
729,0.0
878,17415349.78198658
918,18291600.0
955,0.0
968,0.0
983,154486190.42936588
1008,198059218.49918706
1021,0.0
1039,0.0
2,1, 1, 1, 0, 3, 0.00,60.00,Holiday
9,77890975.2829945
45,6728684.064273106
107,26964720.0
170,273887493.42279568
206,12023568.0
279,9653521.926122789
304,4392892.076267378
486,2131538.914686818
623,60186117.19075738
648,0.0
729,0.0
878,21513079.14245401
918,18291600.0
955,0.0
968,0.0
983,202591261.47632487
1008,259732386.5081088
1021,0.0
1039,0.0
2,1, 1, 1, 0, 4, 0.00,60.00,Holiday
9,70713304.64267589
45,6728684.064273106
107,26964720.0
170,193585489.1052353
206,12023568.0
279,9613818.546561109
304,4386247.816766787
486,72000.0
623,46718056.8906997
648,0.0
729,0.0
878,14342052.761636006
918,18291600.0
955,0.0
968,0.0
983,141562138.46208356
1008,181489921.1052353
1021,0.0
1039,0.0
2,1, 1, 1, 0, 5, 0.00,60.00,Holiday
9,78315780.57764352
45,6728684.064273106
107,26964720.0
170,293942277.1006161
206,12023568.0
279,11315903.009749234
304,4817697.370916406
486,2131533.6104769746
623,76492213.80035822
648,0.0
729,0.0
878,21513079.14245401
918,18291600.0
955,0.0
968,0.0
983,218233996.88230855
1008,279787175.4901391
1021,0.0
1039,0.0
2,1, 1, 1, 0, 6, 0.00,60.00,Holiday
9,102037208.2923752
45,20186052.19281932
107,29481120.0
170,598111752.2249274
206,30058920.000000005
279,13578170.981331706
304,5394330.576283868
486,72000.0
623,102984381.38132495
648,0.0
729,0.0
878,28684105.523272009
918,18291600.0
955,0.0
968,0.0
983,443025049.1354434
1008,567980832.2249274
1021,0.0
1039,0.0
2,1, 1, 1, 0, 7, 0.00,60.00,Holiday
9,163247355.52727575
45,40372104.38563864
107,69928200.0
170,585570942.4911258
206,60117840.00000001
279,15230010.137577516
304,5949356.293458545
486,16614372.882301022
623,61145457.5427707
648,4155799.687051203
729,12845729.769915654
878,28684105.52327201
918,18291600.0
955,196853.04967725255
968,21989.31712459139
983,396894209.0948834
1008,508838729.60882487
1021,0.0
1039,0.007781965000390677
2,1, 1, 1, 0, 8, 0.00,60.00,Holiday
9,176405144.13358716
45,40372104.38563864
107,96892920.0
170,561367607.0713329
206,90176760.0
279,14974714.279572834
304,5834020.285792212
486,18682250.89960248
623,21654154.517493179
648,4979116.934112728
729,12845729.801699965
878,28684105.52327201
918,4572900.0
955,424852.1244176334
968,49093.93110065196
983,352956705.01394978
1008,452508596.17173048
1021,0.0
1039,0.0077836280915162419
2,1, 1, 1, 0, 9, 0.00,60.00,Holiday
9,171883703.9574435
45,40372104.38563864
107,96892920.0
170,562249261.9942038
206,120235680.00000002
279,15315327.768393912
304,5892202.935490146
486,16606749.101974864
623,10890364.352155474
648,4618244.87161203
729,12845729.849284556
878,28684105.52327201
918,0.0
955,357150.0817363878
968,42371.10526391579
983,331817329.6559385
1008,425406832.89222887
1021,0.0
1039,0.007778768847621414
2,1, 1, 1, 0,10, 0.00,60.00,Holiday
9,144907084.25354583
45,40372104.38563864
107,69928200.0
170,522946064.09439638
206,90176760.0
279,15500831.366726622
304,5922674.336854657
486,16609904.502489118
623,23899660.08329566
648,3079838.3199838998
729,12845729.86061879
878,28684105.52327201
918,0.0
955,0.0
968,0.0
983,324604331.68168768
1008,416159399.59190729
1021,0.0
1039,0.007780508292078921
2,1, 1, 1, 0,11, 0.00,60.00,Holiday
9,171969335.31474073
45,40372104.38563864
107,96892920.0
170,580278483.6113781
206,150294600.0
279,15604492.650823109
304,5940979.788843239
486,54358868.42316494
623,13850539.088568207
648,4454046.523833165
729,42819066.32025641
878,28684105.52327201
918,0.0
955,630123.0645203482
968,79225.59104749962
983,292987511.8468063
1008,375625015.1882131
1021,0.0
1039,0.02593926928655216
2,1, 1, 1, 0,12, 0.00,60.00,Holiday
9,174747183.00433973
45,40372104.38563864
107,96892920.0
170,540287005.6936401
206,150294600.0
279,18775081.460183249
304,8762934.475388045
486,54360514.83720945
623,1910857.0825915319
648,3482581.844766078
729,42819068.22484483
878,28684105.52327201
918,0.0
955,267694.71664505769
968,35118.59410213327
983,261792874.86801593
1008,335631890.85643067
1021,0.0
1039,0.025938885058300014
2,1, 1, 1, 0,13, 0.00,60.00,Holiday
9,172138751.5778488
45,40372104.38563864
107,96892920.0
170,491872060.2301784
206,150294600.0
279,16646702.870413769
304,6174475.917420816
486,43802731.32434672
623,0.0
648,15497188.569614962
729,34255278.304093819
878,28684105.52327201
918,0.0
955,112949.66276303159
968,15145.730766580044
983,232264288.54654873
1008,297774728.9058317
1021,0.0
1039,0.020750709289186064
2,1, 1, 1, 0,14, 0.00,60.00,Holiday
9,145061286.09438176
45,40372104.38563864
107,69928200.0
170,448469856.66669979
206,120235680.00000002
279,16406454.175826384
304,6076876.164719995
486,43792896.63758908
623,0.0
648,12471664.184746433
729,34255277.89312194
878,28684105.52327201
918,0.0
955,0.0
968,0.0
983,221864198.42270638
1008,284441280.02911069
1021,0.0
1039,0.020751130398885203
2,1, 1, 1, 0,15, 0.00,60.00,Holiday
9,145073367.4135243
45,40372104.38563864
107,69928200.0
170,416130741.94294109
206,90176760.0
279,16482123.794961814
304,6088957.489050876
486,33299642.97823917
623,447253.2154858709
648,1710077.1564550969
729,25691450.511667156
878,28684105.52327201
918,0.0
955,0.0
968,0.0
983,228270384.39246745
1008,292654338.96470186
1021,0.0
1039,0.015562769947130538
2,1, 1, 1, 0,16, 0.00,60.00,Holiday
9,145029600.4537648
45,40372104.38563864
107,69928200.0
170,454837580.58517137
206,120235680.00000002
279,16220219.482560914
304,6045190.529291597
486,33297623.58235163
623,7232107.877625918
648,2112419.626381975
729,25691459.72142435
878,28684105.52327201
918,0.0
955,0.0
968,0.0
983,235017336.06219939
1008,301304277.0028197
1021,0.0
1039,0.015562577249432742
2,1, 1, 1, 0,17, 0.00,60.00,Holiday
9,185530997.59022887
45,40372104.38563864
107,96892920.0
170,507308820.03487858
206,180353520.0
279,14788926.01828048
304,5807944.527994361
486,33295610.292331127
623,1237082.341366328
648,3135659.088563773
729,25691459.717806244
878,28684105.52327201
918,13718700.0
955,397418.7859813752
968,55223.13776104883
983,229054557.999187
1008,293659689.7425474
1021,0.0
1039,0.01556278823504846
2,1, 1, 1, 0,18, 0.00,60.00,Holiday
9,190089178.02047006
45,40372104.38563864
107,96892920.0
170,516909282.34559419
206,180353520.0
279,15027330.711819942
304,5848448.090808417
486,43797277.21744562
623,0.0
648,6328563.851733895
729,34255279.313057627
878,28684105.52327201
918,18291600.0
955,0.0
968,0.0
983,228351618.39995594
1008,292758485.12814858
1021,0.0
1039,0.020750963846028156
2,1, 1, 1, 0,19, 0.00,60.00,Holiday
9,190106539.00919507
45,40372104.38563864
107,96892920.0
170,521592976.59054628
206,180353520.0
279,15129366.30228445
304,5865809.074345062
486,54360009.763125
623,0.0
648,17176829.128094853
729,42819061.10182594
878,28684105.52327201
918,18291600.0
955,0.0
968,0.0
983,223765968.52538864
1008,286879446.8274213
1021,0.0
1039,0.025939326965188027
2,1, 1, 1, 0,20, 0.00,60.00,Holiday
9,163628778.59529425
45,40372104.38563864
107,69928200.0
170,451175856.4677594
206,120235680.00000002
279,17164363.01475715
304,6352768.660444355
486,54366587.753176648
623,0.0
648,18725757.38851971
729,42819098.47203725
878,28684105.52327201
918,18291600.0
955,0.0
968,0.0
983,215727399.19737453
1008,276573588.7145827
1021,0.0
1039,0.02593925903451127
2,1, 1, 1, 0,21, 0.00,60.00,Holiday
9,163569065.70068155
45,40372104.38563864
107,69928200.0
170,435912695.1634666
206,120235680.00000002
279,16865456.531366588
304,6293055.771019895
486,43797070.20764927
623,0.0
648,22137849.79600343
729,34255278.83514058
878,28684105.52327201
918,18291600.0
955,0.0
968,0.0
983,212066357.06553758
1008,271879944.95581737
1021,0.0
1039,0.020750987676943515
2,1, 1, 1, 0,22, 0.00,60.00,Holiday
9,163319315.21315543
45,40372104.38563864
107,69928200.0
170,440719427.95558759
206,90176760.0
279,15772022.64838279
304,6043305.278304821
486,54370913.5942207
623,535082.8894450809
648,2080427.5239706557
729,42819096.88626136
878,28684105.52327201
918,18291600.0
955,0.0
968,0.0
983,231013968.40186615
1008,296171754.36136689
1021,0.0
1039,0.02593994621917234
2,1, 1, 1, 0,23, 0.00,60.00,Holiday
9,162922932.45552249
45,40372104.38563864
107,69928200.0
170,415694440.7466159
206,60117840.00000001
279,14036629.51559404
304,5646922.525860512
486,43801901.50916518
623,10852840.721452255
648,1680221.664490621
729,34255278.552407357
878,28684105.52327201
918,18291600.0
955,0.0
968,0.0
983,243184265.40521158
1008,311774699.2374507
1021,0.0
1039,0.020751298120998065
2,1, 1, 1, 0,24, 0.00,60.00,Holiday
9,165832200.2446314
45,40372104.38563864
107,69928200.0
170,369884647.9434627
206,30058920.000000005
279,17534616.559937516
304,8556190.325347089
486,22847632.480967896
623,12337621.38232907
648,1512374.9652419217
729,17127610.28670342
878,28684105.52327201
918,18291600.0
955,0.0
968,0.0
983,247242914.46074597
1008,316978095.46249487
1021,0.0
1039,0.010373681065452652
2,2, 1, 2, 0, 1, 0.00,60.00,Monday
9,101763649.258789
45,20186052.19281932
107,29481120.0
170,445273236.84428408
206,12023568.0
279,12631469.014458826
304,5120771.532319396
486,22848339.532134687
623,69260445.02813886
648,844932.5276417662
729,17158879.926029844
878,28684105.52327201
918,18291600.0
955,0.0
968,0.0
983,320113036.8634766
1008,410401329.3121494
1021,0.0
1039,0.010378276318234356
2,2, 1, 2, 0, 2, 0.00,60.00,Monday
9,69810372.60717295
45,6728684.064273106
107,26964720.0
170,108756875.5709939
206,12023568.0
279,10765373.206887059
304,4580325.222250402
486,2131513.543355506
623,8575627.500801202
648,0.0
729,0.0
878,13245043.320649445
918,18291600.0
955,0.0
968,0.0
983,73789399.34155795
1008,94601794.0276384
1021,0.0
1039,0.0
2,2, 1, 2, 0, 3, 0.00,60.00,Monday
9,76849319.73428422
45,6728684.064273106
107,26964720.0
170,158356744.65708245
206,12023568.0
279,10322663.276244956
304,4506243.7194911879
486,72000.0
623,21839549.893469737
648,0.0
729,0.0
878,20358071.950519928
918,18291600.0
955,0.0
968,0.0
983,114083717.79252428
1008,146261176.65708245
1021,0.0
1039,0.0
2,2, 1, 2, 0, 4, 0.00,60.00,Monday
9,71783761.45376584
45,6728684.064273106
107,26964720.0
170,120703253.14670831
206,12023568.0
279,10087331.605908864
304,4466698.463341812
486,72000.0
623,22901663.253944614
648,0.0
729,0.0
878,15332058.926150931
918,18291600.0
955,0.0
968,0.0
983,84713994.4144325
1008,108607685.14670831
1021,0.0
1039,0.0
2,2, 1, 2, 0, 5, 0.00,60.00,Monday
9,78501112.95337615
45,6728684.064273106
107,26964720.0
170,165078801.48918355
206,12023568.0
279,12414475.643645626
304,5003029.746649038
486,2131519.2778033486
623,32529446.451705316
648,0.0
729,0.0
878,21513079.14245401
918,18291600.0
955,0.0
968,0.0
983,117720497.08487654
1008,150923714.21138019
1021,0.0
1039,0.0
2,2, 1, 2, 0, 6, 0.00,60.00,Monday
9,102064297.33858028
45,20186052.19281932
107,29481120.0
170,408691049.50824406
206,30058920.000000005
279,13732897.816048693
304,5421419.622488953
486,72000.0
623,66216202.534528579
648,997010.7141806032
729,0.0
878,28684105.523272009
918,18291600.0
955,0.0
968,0.0
983,295276901.0164303
1008,378560129.50824406
1021,0.0
1039,0.0
2,2, 1, 2, 0, 7, 0.00,60.00,Monday
9,163403970.81052468
45,40372104.38563864
107,69928200.0
170,409694155.045903
206,60117840.00000001
279,15731097.337901015
304,6034608.912191053
486,18682043.25692547
623,33802822.63266406
648,2945648.0447255217
729,12869165.842022796
878,28684105.52327201
918,18291600.0
955,690653.87178344
968,93351.98163849107
983,258097531.9954025
1008,330894271.78897759
1021,0.0
1039,0.007784494246890786
2,2, 1, 2, 0, 8, 0.00,60.00,Monday
9,176590527.6027717
45,40372104.38563864
107,96892920.0
170,446536647.98122039
206,90176760.0
279,15788869.691679329
304,5973154.92299785
486,64997031.22666354
623,5109676.635594599
648,3219447.099700098
729,51476641.95445643
878,28684105.52327201
918,4572900.0
955,687147.3476998735
968,95342.73972886318
983,227263028.26855434
1008,291362856.7545569
1021,0.0
1039,0.03113431513571058
2,2, 1, 2, 0, 9, 0.00,60.00,Monday
9,172027885.26198633
45,40372104.38563864
107,96892920.0
170,458408019.8516708
206,120235680.00000002
279,16188694.048598309
304,6041055.29137432
486,58627872.54790495
623,638820.7966907576
648,2957930.2639238589
729,47186942.78161654
878,28684105.52327201
918,0.0
955,266860.40264178326
968,37700.03315545061
983,218044684.4969374
1008,279544467.3037659
1021,0.0
1039,0.028545892772281636
2,2, 1, 2, 0,10, 0.00,60.00,Monday
9,145064906.11205615
45,40372104.38563864
107,69928200.0
170,411405316.86811968
206,90176760.0
279,16350337.087843523
304,6080496.1797963739
486,50130441.08283388
623,429841.07667731298
648,1275395.0435880987
729,38607449.54013721
878,28684105.52327201
918,0.0
955,0.0
968,0.0
983,211456530.3125229
1008,271098115.7852858
1021,0.0
1039,0.023349101517581299
2,2, 1, 2, 0,11, 0.00,60.00,Monday
9,172107470.69491623
45,40372104.38563864
107,96892920.0
170,456892902.5420526
206,150294600.0
279,16291904.32596717
304,6102317.025535294
486,43797472.67090208
623,4332650.813020947
648,2508749.502934471
729,34317776.9615121
878,28684105.52327201
918,0.0
955,386390.7225886771
968,56023.739711854185
983,204984647.2994975
1008,262800829.8711506
1021,0.0
1039,0.020758404574269565
2,2, 1, 2, 0,12, 0.00,60.00,Monday
9,174864287.356512
45,40372104.38563864
107,96892920.0
170,430647049.1924418
206,150294600.0
279,19280779.634623179
304,8876097.784461365
486,50117183.970709908
623,0.0
648,18503428.366070078
729,38607499.07894896
878,28684105.52327201
918,0.0
955,265480.5271791945
968,39059.63978643788
983,179583506.87295089
1008,230235265.2217319
1021,0.0
1039,0.02335352403788153
2,2, 1, 2, 0,13, 0.00,60.00,Monday
9,172269210.65143145
45,40372104.38563864
107,96892920.0
170,398150483.4380796
206,150294600.0
279,17160792.17921533
304,6320080.7217623279
486,43796377.737688768
623,0.0
648,38642413.51519472
729,34317774.632865298
878,28684105.52327201
918,0.0
955,0.0
968,0.0
983,159166414.4463048
1008,204059505.7003908
1021,0.0
1039,0.020758423107100828
2,2, 1, 2, 0,14, 0.00,60.00,Monday
9,145164118.81851519
45,40372104.38563864
107,69928200.0
170,390092780.82711419
206,120235680.00000002
279,16879806.057540135
304,6179708.891440066
486,37501470.67668287
623,0.0
648,28431075.08935009
729,30028025.212251907
878,28684105.52327201
918,0.0
955,0.0
968,0.0
983,181237391.51733644
1008,232355630.1504313
1021,0.0
1039,0.01816447454871772
2,2, 1, 2, 0,15, 0.00,60.00,Monday
9,145148555.10491184
45,40372104.38563864
107,69928200.0
170,395071895.87571147
206,90176760.0
279,16918689.402449255
304,6164145.180432856
486,33301961.05471668
623,0.0
648,9839739.879033987
729,25738322.013729559
878,28684105.52327201
918,0.0
955,0.0
968,0.0
983,211842676.3603759
1008,271593174.82099476
1021,0.0
1039,0.015568324539892457
2,2, 1, 2, 0,16, 0.00,60.00,Monday
9,145105204.28111673
45,40372104.38563864
107,69928200.0
170,432505700.94761779
206,120235680.00000002
279,16614709.611981206
304,6120794.356637918
486,33300680.11548673
623,3549722.006154014
648,1912381.7471748777
729,25738332.774827906
878,28684105.52327201
918,0.0
955,0.0
968,0.0
983,217596085.84906224
1008,278969340.8321311
1021,0.0
1039,0.015568153719133019
2,2, 1, 2, 0,17, 0.00,60.00,Monday
9,185622230.4620114
45,40372104.38563864
107,96892920.0
170,477750359.478592
206,180353520.0
279,15156336.461936143
304,5891525.808788253
486,33299403.24232867
623,0.0
648,5728225.225393139
729,25738332.77202007
878,28684105.52327201
918,13718700.0
955,433234.9979386973
968,62874.72874422238
983,205996000.2642854
1008,264097436.23626334
1021,0.0
1039,0.015568243801599859
2,2, 1, 2, 0,18, 0.00,60.00,Monday
9,190156973.59877307
45,40372104.38563864
107,96892920.0
170,482096753.5198157
206,180353520.0
279,15406428.659986634
304,5916243.669103892
486,43803523.847299519
623,0.0
648,18643594.095239413
729,34317775.73139584
878,28684105.52327201
918,18291600.0
955,0.0
968,0.0
983,201192973.54456259
1008,257939709.67251615
1021,0.0
1039,0.020758516416424744
2,2, 1, 2, 0,19, 0.00,60.00,Monday
9,190208787.3730191
45,40372104.38563864
107,96892920.0
170,470521214.0790676
206,180353520.0
279,15543393.76908434
304,5944715.0037421309
486,60718774.14711766
623,0.0
648,37686124.16485102
729,47186943.05495864
878,28684105.52327201
918,18291600.0
955,160600.64864031733
968,23342.43182487674
983,178970157.54692097
1008,229448919.9319499
1021,0.0
1039,0.028541433080835799
2,2, 1, 2, 0,20, 0.00,60.00,Monday
9,163740256.32572223
45,40372104.38563864
107,69928200.0
170,406848939.8674903
206,120235680.00000002
279,17632698.624847104
304,6464246.385673638
486,64987127.438587937
623,0.0
648,33921192.59220359
729,51476603.20027034
878,28684105.52327201
918,18291600.0
955,0.0
968,0.0
983,172868383.2945438
1008,221626132.4289023
1021,0.0
1039,0.031137947776174875
2,2, 1, 2, 0,21, 0.00,60.00,Monday
9,163698314.5595094
45,40372104.38563864
107,69928200.0
170,386591457.0527562
206,120235680.00000002
279,17326407.84934958
304,6422304.624650018
486,54364533.81451768
623,0.0
648,35110155.18295054
729,42897209.758901979
878,28684105.52327201
918,18291600.0
955,0.0
968,0.0
983,165353169.72582606
1008,211991243.2382385
1021,0.0
1039,0.025948726856165406
2,2, 1, 2, 0,22, 0.00,60.00,Monday
9,163467882.5036055
45,40372104.38563864
107,69928200.0
170,376852633.37292459
206,90176760.0
279,16245859.033571598
304,6191872.566154097
486,60720549.788762938
623,0.0
648,17971631.658254699
729,47186942.801767889
878,28684105.52327201
918,18291600.0
955,0.0
968,0.0
983,176245152.3956461
1008,225955323.58416165
1021,0.0
1039,0.02854078003082709
2,2, 1, 2, 0,23, 0.00,60.00,Monday
9,163031682.6010607
45,40372104.38563864
107,69928200.0
170,368532640.5486682
206,60117840.00000001
279,14513293.881379998
304,5755672.668794433
486,50110720.311066579
623,0.0
648,6207216.172561431
729,38607498.82767686
878,28684105.52327201
918,18291600.0
955,0.0
968,0.0
983,201477182.5853293
1008,258304080.23760165
1021,0.0
1039,0.0233556213582738
2,2, 1, 2, 0,24, 0.00,60.00,Monday
9,165896577.03450359
45,40372104.38563864
107,69928200.0
170,341649306.6660712
206,30058920.000000005
279,17920877.2835811
304,8620567.112621019
486,27023507.86176138
623,5918351.493946593
648,1132158.3814124284
729,21448609.207658277
878,28684105.52327201
918,18291600.0
955,0.0
968,0.0
983,221962165.4673617
1008,284566878.80430987
1021,0.0
1039,0.012971916937266555
2,3, 1, 3, 0, 1, 0.00,60.00,Tuesday
9,101840463.86185625
45,20186052.19281932
107,29481120.0
170,383055748.914882
206,12023568.0
279,13093395.608519789
304,5197586.135382357
486,22848861.738378966
623,55702832.83629574
648,609148.1147609355
729,17189534.680841514
878,28684105.52327201
918,18291600.0
955,0.0
968,0.0
983,271582988.95767238
1008,348183319.17650309
1021,0.0
1039,0.010382560529612058
2,3, 1, 3, 0, 2, 0.00,60.00,Tuesday
9,56690554.81938249
45,6728684.064273106
107,26964720.0
170,12095568.0
206,12023568.0
279,11506627.418824207
304,4705550.755109384
486,72000.0
623,0.0
648,0.0
729,0.0
878,0.0
918,18291600.0
955,0.0
968,0.0
983,0.0
1008,0.0
1021,0.0
1039,0.0
2,3, 1, 3, 0, 3, 0.00,60.00,Tuesday
9,68984006.66142622
45,6728684.064273106
107,26964720.0
170,81196576.47753224
206,12023568.0
279,11019869.110296023
304,4636962.164546959
486,2131374.56194369
623,5451498.93955761
648,0.0
729,0.0
878,12362040.43260615
918,18291600.0
955,0.0
968,0.0
983,52292474.45415908
1008,67041633.91558856
1021,0.0
1039,0.0
2,3, 1, 3, 0, 4, 0.00,60.00,Tuesday
9,68937398.9162451
45,6728684.064273106
107,26964720.0
170,83934857.96196346
206,12023568.0
279,10772399.485555329
304,4590354.419365853
486,72000.0
623,7957990.6050195959
648,0.0
729,0.0
878,12362040.43260615
918,18291600.0
955,0.0
968,0.0
983,56034646.17033151
1008,71839289.96196346
1021,0.0
1039,0.0
2,3, 1, 3, 0, 5, 0.00,60.00,Tuesday
9,80107121.63096448
45,6728684.064273106
107,26964720.0
170,140183170.51310954
206,12023568.0
279,20773690.890163989
304,6939040.479075669
486,2131520.07503619
623,20124586.06167662
648,0.0
729,0.0
878,21183077.0876157
918,18291600.0
955,0.0
968,0.0
983,98301904.30169723
1008,126028082.43807334
1021,0.0
1039,0.0
2,3, 1, 3, 0, 6, 0.00,60.00,Tuesday
9,103913820.86481926
45,20186052.19281932
107,29481120.0
170,413714646.14646497
206,30058920.000000005
279,21670409.606395384
304,7270943.148727931
486,72000.0
623,62451988.236557658
648,1490075.8380021833
729,0.0
878,28684105.523272009
918,18291600.0
955,0.0
968,0.0
983,299195306.3942427
1008,383583726.14646497
1021,0.0
1039,0.0
2,3, 1, 3, 0, 7, 0.00,60.00,Tuesday
9,164209433.4318053
45,40372104.38563864
107,69928200.0
170,439283578.22041049
206,60117840.00000001
279,19288499.64118147
304,6864939.920432078
486,16614955.090707306
623,34471569.56603057
648,3194544.591471279
729,12892151.73708446
878,28684105.52327201
918,18291600.0
955,524504.8369742342
968,68483.59467391366
983,282789610.84116849
1008,362550783.1297031
1021,0.0
1039,0.007788648535318889
2,3, 1, 3, 0, 8, 0.00,60.00,Tuesday
9,176572813.0446553
45,40372104.38563864
107,96892920.0
170,491664220.92764768
206,90176760.0
279,15734110.263684314
304,5963888.969421924
486,67089899.04528314
623,7840791.6429963069
648,3801485.148514789
729,51568631.29359397
878,28684105.52327201
918,4572900.0
955,656306.6131967147
968,86894.13517338439
983,260830098.2682444
1008,334397561.8823646
1021,0.0
1039,0.031149311800769076
2,3, 1, 3, 0, 9, 0.00,60.00,Tuesday
9,171989709.9053952
45,40372104.38563864
107,96892920.0
170,519767679.0496304
206,120235680.00000002
279,16086253.297745936
304,6023666.069019136
486,58620278.805435467
623,5110772.3688842919
648,3120672.6890667655
729,47271248.03019665
878,28684105.52327201
918,0.0
955,127381.70709597148
968,16913.898914173322
983,265911141.79047204
1008,340911720.2441949
1021,0.0
1039,0.028551237101363374
2,3, 1, 3, 0,10, 0.00,60.00,Tuesday
9,145017888.53404705
45,40372104.38563864
107,69928200.0
170,490515270.0813949
206,90176760.0
279,16149157.205632965
304,6033478.601777056
486,50125775.17722485
623,7368885.587059233
648,2102582.8991044696
729,38676473.753680977
878,28684105.52327201
918,0.0
955,0.0
968,0.0
983,273165933.2252526
1008,350212734.9041701
1021,0.0
1039,0.02335933227493898
2,3, 1, 3, 0,11, 0.00,60.00,Tuesday
9,172012394.7615367
45,40372104.38563864
107,96892920.0
170,546295895.9575331
206,150294600.0
279,16045557.674763093
304,6016608.209562581
486,43794987.14236678
623,12803642.663934932
648,3682554.3567595679
729,34379075.96624291
878,28684105.52327201
918,0.0
955,353957.6728953499
968,46656.62229776558
983,274720920.87582978
1008,352206308.81516638
1021,0.0
1039,0.02076568134297135
2,3, 1, 3, 0,12, 0.00,60.00,Tuesday
9,174787526.95252527
45,40372104.38563864
107,96892920.0
170,518247263.5730991
206,150294600.0
279,19033240.02944457
304,8805960.903598264
486,50116110.72927449
623,0.0
648,10958283.628415997
729,38676475.79370124
878,28684105.52327201
918,0.0
955,242738.75288058166
968,32436.116654252837
983,247912511.21818323
1008,317836552.8438246
1021,0.0
1039,0.023362072423702527
2,3, 1, 3, 0,13, 0.00,60.00,Tuesday
9,172163241.5932515
45,40372104.38563864
107,96892920.0
170,477481677.6576897
206,150294600.0
279,16885761.684673169
304,6214111.663575486
486,43796778.81671241
623,0.0
648,31260239.896808827
729,34379087.865028347
878,28684105.52327201
918,0.0
955,0.0
968,0.0
983,221044433.0959623
1008,283390298.8409773
1021,0.0
1039,0.020765348093031413
2,3, 1, 3, 0,14, 0.00,60.00,Tuesday
9,145094233.73276068
45,40372104.38563864
107,69928200.0
170,448560740.3177901
206,120235680.00000002
279,16597402.124121467
304,6109823.805678797
486,37502818.83661531
623,0.0
648,22602245.33190485
729,30081665.350184449
878,28684105.52327201
918,0.0
955,0.0
968,0.0
983,226841348.35531635
1008,290822241.48117479
1021,0.0
1039,0.018171227808900526
2,3, 1, 3, 0,15, 0.00,60.00,Tuesday
9,145090703.73193679
45,40372104.38563864
107,69928200.0
170,436325221.37126347
206,90176760.0
279,16581810.013167009
304,6106293.8074518819
486,33303881.968783194
623,0.0
648,5469240.49303547
729,25784299.522450117
878,28684105.52327201
918,0.0
955,0.0
968,0.0
983,244018771.9339346
1008,312844579.40248027
1021,0.0
1039,0.015574250608043622
2,3, 1, 3, 0,16, 0.00,60.00,Tuesday
9,145037596.64157359
45,40372104.38563864
107,69928200.0
170,482412657.6204332
206,120235680.00000002
279,16265897.444690349
304,6053186.717089134
486,33303327.891488539
623,9259936.105980494
648,2512748.214228874
729,25784317.260724356
878,28684105.52327201
918,0.0
955,0.0
968,0.0
983,256521446.78857688
1008,328873649.72894468
1021,0.0
1039,0.015573810941581165
2,3, 1, 3, 0,17, 0.00,60.00,Tuesday
9,185528150.70731346
45,40372104.38563864
107,96892920.0
170,535312615.4055038
206,180353520.0
279,14783856.979784955
304,5807175.073771122
486,33302779.547034909
623,3592532.929788534
648,3528022.8915103117
729,25784317.259907139
878,28684105.52327201
918,13718700.0
955,392486.69176363779
968,53145.70905783818
983,250891926.36960579
1008,321656315.85846897
1021,0.0
1039,0.015573830678348588
2,3, 1, 3, 0,18, 0.00,60.00,Tuesday
9,190091667.04892487
45,40372104.38563864
107,96892920.0
170,527511416.74358019
206,180353520.0
279,15041040.459751616
304,5850937.119247809
486,43800187.23681479
623,0.0
648,13611343.98430542
729,34379088.4687184
878,28684105.52327201
918,18291600.0
955,0.0
968,0.0
983,236619013.41527698
1008,303357709.50676539
1021,0.0
1039,0.020766362745724459
2,3, 1, 3, 0,19, 0.00,60.00,Tuesday
9,190132589.13231839
45,40372104.38563864
107,96892920.0
170,521480049.7576055
206,180353520.0
279,15178750.263492644
304,5874400.054915506
486,60716889.46038347
623,0.0
648,31646475.3759446
729,47271248.24698976
878,28684105.52327201
918,18291600.0
955,127245.45783928003
968,17459.139942411624
983,218719519.4318332
1008,280409640.297222
1021,0.0
1039,0.028549785927149675
2,3, 1, 3, 0,20, 0.00,60.00,Tuesday
9,163125970.08849515
45,40372104.38563864
107,69928200.0
170,471017633.60598567
206,120235680.00000002
279,15034854.236045197
304,5849960.148433248
486,64987854.18855045
623,0.0
648,26582448.153540888
729,51568612.825307849
878,28684105.52327201
918,18291600.0
955,0.0
968,0.0
983,222919397.5455994
1008,285794099.4174351
1021,0.0
1039,0.031151237292654688
2,3, 1, 3, 0,21, 0.00,60.00,Tuesday
9,163095556.71186085
45,40372104.38563864
107,69928200.0
170,462623385.1691078
206,120235680.00000002
279,14855414.376173467
304,5819546.776994613
486,56455514.2118154
623,0.0
648,26722366.016482459
729,42973832.1865691
878,28684105.52327201
918,18291600.0
955,0.0
968,0.0
983,223027108.94668807
1008,285932190.9572924
1021,0.0
1039,0.025955543925838113
2,3, 1, 3, 0,22, 0.00,60.00,Tuesday
9,162955803.5502872
45,40372104.38563864
107,69928200.0
170,458175539.2488726
206,90176760.0
279,14230674.639795689
304,5679793.612824178
486,58622115.06165196
623,0.0
648,8436786.190194009
729,47271247.95222647
878,28684105.52327201
918,18291600.0
955,0.0
968,0.0
983,241313798.06603209
1008,309376664.18722066
1021,0.0
1039,0.028552381138564885
2,3, 1, 3, 0,23, 0.00,60.00,Tuesday
9,162927404.25062735
45,40372104.38563864
107,69928200.0
170,432521296.30396208
206,60117840.00000001
279,14062563.873319613
304,5651394.318357807
486,50127485.539477679
623,3865131.5543189195
648,2047291.2424709234
729,38676451.702115807
878,28684105.52327201
918,18291600.0
955,0.0
968,0.0
983,251375257.19629786
1008,322275970.7644844
1021,0.0
1039,0.023358888300734148
2,3, 1, 3, 0,24, 0.00,60.00,Tuesday
9,165836290.03906016
45,40372104.38563864
107,69928200.0
170,392149002.0688766
206,30058920.000000005
279,17559155.31086731
304,8560280.11716872
486,27027240.089035307
623,13799978.077502653
648,1770147.6558915829
729,21486927.188332164
878,28684105.52327201
918,18291600.0
955,0.0
968,0.0
983,261349016.74427624
1008,335062841.9798413
1021,0.0
1039,0.012980789120020665
2,4, 1, 4, 0, 1, 0.00,60.00,Wednesday
9,101768273.3406702
45,20186052.19281932
107,29481120.0
170,439460380.85801056
206,12023568.0
279,12662113.052774625
304,5125395.614192799
486,22846917.935884518
623,68114791.70910001
648,1160191.6505738234
729,17219583.724592665
878,28684105.52327201
918,18291600.0
955,0.0
968,0.0
983,315580118.0392583
1008,404589894.922126
1021,0.0
1039,0.01038607701071506
2,4, 1, 4, 0, 2, 0.00,60.00,Wednesday