Program Version,EnergyPlus, Version 9.2.0-921312fa1d, YMD=2020.12.22 18:02
1,5,Environment Title[],Latitude[deg],Longitude[deg],Time Zone[],Elevation[m]
2,8,Day of Simulation[],Month[],Day of Month[],DST Indicator[1=yes 0=no],Hour[],StartMinute[],EndMinute[],DayType
3,5,Cumulative Day of Simulation[],Month[],Day of Month[],DST Indicator[1=yes 0=no],DayType  ! When Daily Meters Requested
4,2,Cumulative Days of Simulation[],Month[]  ! When Monthly Meters Requested
5,1,Cumulative Days of Simulation[] ! When Run Period Meters Requested
6,1,Calendar Year of Simulation[] ! When Annual Meters Requested
9,1,Electricity:Facility [J] !Hourly
1153,1,Heating:Electricity [J] !Hourly
1216,1,Cooling:Electricity [J] !Hourly
45,1,InteriorLights:Electricity [J] !Hourly
1020,1,ExteriorLights:Electricity [J] !Hourly
307,1,InteriorEquipment:Electricity [J] !Hourly
1057,1,Fans:Electricity [J] !Hourly
1116,1,Gas:Facility [J] !Hourly
1140,1,Heating:Gas [J] !Hourly
497,1,Heating:EnergyTransfer [J] !Hourly
522,1,Cooling:EnergyTransfer [J] !Hourly
1103,1,HeatingCoils:EnergyTransfer [J] !Hourly
1203,1,CoolingCoils:EnergyTransfer [J] !Hourly
End of Data Dictionary
1,RUNPERIOD 1,  41.98, -87.92,  -6.00, 201.00
2,1, 1, 1, 0, 1, 0.00,60.00,Holiday
9,53429524.04940898
45,6567571.38096
307,4853719.3248000009
497,16705477.152691488
522,0.0
1020,41346000.0
1057,662233.3436489874
1103,16180423.69351859
1116,20225529.61689824
1140,20225529.61689824
1153,0.0
1203,0.0
1216,0.0
2,1, 1, 1, 0, 2, 0.00,60.00,Holiday
9,54997885.96050626
45,6567571.38096
307,4853719.3248000009
497,56061625.88162699
522,0.0
1020,41346000.0
1057,2230595.2547462715
1103,54227974.8236908
1116,67784968.5296135
1140,67784968.5296135
1153,0.0
1203,0.0
1216,0.0
2,1, 1, 1, 0, 3, 0.00,60.00,Holiday
9,55456663.22516269
45,6567571.38096
307,4853719.3248000009
497,67525201.80556333
522,0.0
1020,41346000.0
1057,2689372.5194026988
1103,65185648.630246
1116,81482060.78780751
1140,81482060.78780751
1153,0.0
1203,0.0
1216,0.0
2,1, 1, 1, 0, 4, 0.00,60.00,Holiday
9,55782981.16144702
45,6567571.38096
307,4853719.3248000009
497,75675741.56240714
522,0.0
1020,41346000.0
1057,3015690.455687028
1103,73086814.72490707
1116,91358518.40613382
1140,91358518.40613382
1153,0.0
1203,0.0
1216,0.0
2,1, 1, 1, 0, 5, 0.00,60.00,Holiday
9,56184845.44857981
45,6567571.38096
307,4853719.3248000009
497,85730239.92395893
522,0.0
1020,41346000.0
1057,3417554.742819812
1103,82766340.04338223
1116,103457925.05422777
1140,103457925.05422777
1153,0.0
1203,0.0
1216,0.0
2,1, 1, 1, 0, 6, 0.00,60.00,Holiday
9,56350924.45170435
45,6567571.38096
307,4853719.3248000009
497,89879367.78041812
522,0.0
1020,41346000.0
1057,3583633.74594435
1103,86884504.44193402
1116,108605630.55241752
1140,108605630.55241752
1153,0.0
1203,0.0
1216,0.0
2,1, 1, 1, 0, 7, 0.00,60.00,Holiday
9,56703280.33860691
45,6567571.38096
307,4853719.3248000009
497,98706818.25027646
522,0.0
1020,41346000.0
1057,3935989.6328469186
1103,95333322.98483801
1116,119166653.73104751
1140,119166653.73104751
1153,0.0
1203,0.0
1216,0.0
2,1, 1, 1, 0, 8, 0.00,60.00,Holiday
9,29071366.445691229
45,6567571.38096
307,4853719.3248000009
497,96997866.84017249
522,0.0
1020,13782000.0
1057,3868075.7399312288
1103,93792575.80567323
1116,117240719.75709154
1140,117240719.75709154
1153,0.0
1203,0.0
1216,0.0
2,1, 1, 1, 0, 9, 0.00,60.00,Holiday
9,51138486.74151541
45,13135142.76192
307,9707438.649600001
497,426511457.0424717
522,0.0
1020,0.0
1057,28295905.329995406
1103,808888544.0746601
1116,1011110680.093325
1140,1011110680.093325
1153,0.0
1203,0.0
1216,0.0
2,1, 1, 1, 0,10, 0.00,60.00,Holiday
9,51138486.74151541
45,13135142.76192
307,9707438.649600001
497,271814844.2248182
522,0.0
1020,0.0
1057,28295905.329995406
1103,631200551.6620979
1116,789000689.5776224
1140,789000689.5776224
1153,0.0
1203,0.0
1216,0.0
2,1, 1, 1, 0,11, 0.00,60.00,Holiday
9,100251353.67687539
45,52540571.04768
307,19414877.299200003
497,187443261.5879088
522,0.0
1020,0.0
1057,28295905.329995406
1103,521093080.325503
1116,651366350.4068787
1140,651366350.4068787
1153,0.0
1203,0.0
1216,0.0
2,1, 1, 1, 0,12, 0.00,60.00,Holiday
9,100251353.67687539
45,52540571.04768
307,19414877.299200003
497,148455353.36099286
522,0.0
1020,0.0
1057,28295905.329995406
1103,459234530.53249236
1116,574043163.1656153
1140,574043163.1656153
1153,0.0
1203,0.0
1216,0.0
2,1, 1, 1, 0,13, 0.00,60.00,Holiday
9,132993264.96711537
45,78810856.57151997
307,25886503.0656
497,104974005.81150122
522,0.0
1020,0.0
1057,28295905.329995406
1103,397563222.9689822
1116,496954028.7112278
1140,496954028.7112278
1153,0.0
1203,0.0
1216,0.0
2,1, 1, 1, 0,14, 0.00,60.00,Holiday
9,132993264.96711537
45,78810856.57151997
307,25886503.0656
497,89030889.78604068
522,0.0
1020,0.0
1057,28295905.329995406
1103,366772638.5780685
1116,458465798.2225856
1140,458465798.2225856
1153,0.0
1203,0.0
1216,0.0
2,1, 1, 1, 0,15, 0.00,60.00,Holiday
9,132993264.96711537
45,78810856.57151997
307,25886503.0656
497,78745033.48561225
522,0.0
1020,0.0
1057,28295905.329995406
1103,350328414.13039669
1116,437910517.66299596
1140,437910517.66299596
1153,0.0
1203,0.0
1216,0.0
2,1, 1, 1, 0,16, 0.00,60.00,Holiday
9,132993264.96711537
45,78810856.57151997
307,25886503.0656
497,75310130.80237505
522,0.0
1020,0.0
1057,28295905.329995406
1103,346975880.61098578
1116,433719850.76373216
1140,433719850.76373216
1153,0.0
1203,0.0
1216,0.0
2,1, 1, 1, 0,17, 0.00,60.00,Holiday
9,160557264.96711538
45,78810856.57151997
307,25886503.0656
497,74503471.56004669
522,0.0
1020,27564000.0
1057,28295905.329995406
1103,346205685.25173589
1116,432757106.56466987
1140,432757106.56466987
1153,0.0
1203,0.0
1216,0.0
2,1, 1, 1, 0,18, 0.00,60.00,Holiday
9,141597353.67687539
45,52540571.04768
307,19414877.299200003
497,154616980.02994699
522,0.0
1020,41346000.0
1057,28295905.329995406
1103,431043984.06918469
1116,538804980.086481
1140,538804980.086481
1153,0.0
1203,0.0
1216,0.0
2,1, 1, 1, 0,19, 0.00,60.00,Holiday
9,108855442.38663544
45,26270285.52384
307,12943251.5328
497,183467545.15739725
522,0.0
1020,41346000.0
1057,28295905.329995406
1103,467256321.5937799
1116,584070401.9922248
1140,584070401.9922248
1153,0.0
1203,0.0
1216,0.0
2,1, 1, 1, 0,20, 0.00,60.00,Holiday
9,52767290.70575999
45,6567571.38096
307,4853719.3248000009
497,0.0
522,0.0
1020,41346000.0
1057,0.0
1103,0.0
1116,0.0
1140,0.0
1153,0.0
1203,0.0
1216,0.0
2,1, 1, 1, 0,21, 0.00,60.00,Holiday
9,52767290.70575999
45,6567571.38096
307,4853719.3248000009
497,0.0
522,0.0
1020,41346000.0
1057,0.0
1103,0.0
1116,0.0
1140,0.0
1153,0.0
1203,0.0
1216,0.0
2,1, 1, 1, 0,22, 0.00,60.00,Holiday
9,52767290.70575999
45,6567571.38096
307,4853719.3248000009
497,0.0
522,0.0
1020,41346000.0
1057,0.0
1103,0.0
1116,0.0
1140,0.0
1153,0.0
1203,0.0
1216,0.0
2,1, 1, 1, 0,23, 0.00,60.00,Holiday
9,52767290.70575999
45,6567571.38096
307,4853719.3248000009
497,0.0
522,0.0
1020,41346000.0
1057,0.0
1103,0.0
1116,0.0
1140,0.0
1153,0.0
1203,0.0
1216,0.0
2,1, 1, 1, 0,24, 0.00,60.00,Holiday
9,52858260.7346009
45,6567571.38096
307,4853719.3248000009
497,2272088.3613257559
522,0.0
1020,41346000.0
1057,90970.02884090318
1103,2196112.607366128
1116,2745140.7592076596
1140,2745140.7592076596
1153,0.0
1203,0.0
1216,0.0
2,2, 1, 2, 0, 1, 0.00,60.00,Tuesday
9,54563173.54837681
45,6567571.38096
307,6471625.7664
497,4467968.75665948
522,0.0
1020,41346000.0
1057,177976.40101681264
1103,4337436.765672112
1116,5421795.957090141
1140,5421795.957090141
1153,0.0
1203,0.0
1216,0.0
2,2, 1, 2, 0, 2, 0.00,60.00,Tuesday
9,54829818.27269263
45,6567571.38096
307,6471625.7664
497,11192931.845478608
522,0.0
1020,41346000.0
1057,444621.12533263445
1103,10814593.706497472
1116,13518242.133121839
1140,13518242.133121839
1153,0.0
1203,0.0
1216,0.0
2,2, 1, 2, 0, 3, 0.00,60.00,Tuesday
9,54799449.88508248
45,6567571.38096
307,6471625.7664
497,10439015.814106022
522,0.0
1020,41346000.0
1057,414252.7377224744
1103,10073237.333840989
1116,12591546.667301236
1140,12591546.667301236
1153,0.0
1203,0.0
1216,0.0
2,2, 1, 2, 0, 4, 0.00,60.00,Tuesday
9,55011015.08426601
45,6567571.38096
307,6471625.7664
497,15775314.69207705
522,0.0
1020,41346000.0
1057,625817.9369060004
1103,15262181.703206914
1116,19077727.12900864
1140,19077727.12900864
1153,0.0
1203,0.0
1216,0.0
2,2, 1, 2, 0, 5, 0.00,60.00,Tuesday
9,54855417.72198476
45,6567571.38096
307,6471625.7664
497,11853305.87136348
522,0.0
1020,41346000.0
1057,470220.57462476336
1103,11439583.31310532
1116,14299479.14138165
1140,14299479.14138165
1153,0.0
1203,0.0
1216,0.0
2,2, 1, 2, 0, 6, 0.00,60.00,Tuesday
9,54996190.75576161
45,6567571.38096
307,6471625.7664
497,15402316.811731944
522,0.0
1020,41346000.0
1057,610993.6084016127
1103,14898111.734233046
1116,18622639.667791308
1140,18622639.667791308
1153,0.0
1203,0.0
1216,0.0
2,2, 1, 2, 0, 7, 0.00,60.00,Tuesday
9,82681102.47735542
45,6567571.38096
307,6471625.7664
497,393526585.0218937
522,0.0
1020,41346000.0
1057,28295905.329995406
1103,662117155.6002213
1116,827646444.5002765
1140,827646444.5002765
1153,0.0
1203,0.0
1216,0.0
2,2, 1, 2, 0, 8, 0.00,60.00,Tuesday
9,81291442.38663543
45,26270285.52384
307,12943251.5328
497,250056975.17289747
522,0.0
1020,13782000.0
1057,28295905.329995406
1103,515051173.17254397
1116,643813966.4656799
1140,643813966.4656799
1153,0.0
1203,0.0
1216,0.0
2,2, 1, 2, 0, 9, 0.00,60.00,Tuesday
9,116622309.3219954
45,65675713.80959998
307,22650690.1824
497,185337852.5641018
522,0.0
1020,0.0
1057,28295905.329995406
1103,445612885.73522987
1116,557016107.1690374
1140,557016107.1690374
1153,0.0
1203,0.0
1216,0.0
2,2, 1, 2, 0,10, 0.00,60.00,Tuesday
9,175634506.13607536
45,118216284.85727997
307,29122315.948799999
497,110623196.06044412
522,0.0
1020,0.0
1057,28295905.329995406
1103,362775995.9720048
1116,453469994.96500596
1140,453469994.96500596
1153,0.0
1203,0.0
1216,0.0
2,2, 1, 2, 0,11, 0.00,60.00,Tuesday
9,175634506.13607536
45,118216284.85727997
307,29122315.948799999
497,81277394.13807622
522,0.0
1020,0.0
1057,28295905.329995406
1103,321320113.19027039
1116,401650141.487838
1140,401650141.487838
1153,0.0
1203,0.0
1216,0.0
2,2, 1, 2, 0,12, 0.00,60.00,Tuesday
9,175634506.13607536
45,118216284.85727997
307,29122315.948799999
497,44860675.29308462
522,0.0
1020,0.0
1057,28295905.329995406
1103,278713319.1768348
1116,348391648.9710435
1140,348391648.9710435
1153,0.0
1203,0.0
1216,0.0
2,2, 1, 2, 0,13, 0.00,60.00,Tuesday
9,175634506.13607536
45,118216284.85727997
307,29122315.948799999
497,28217727.145845817
522,126563.75282642764
1020,0.0
1057,28295905.329995406
1103,262008162.13084708
1116,327510202.6635588
1140,327510202.6635588
1153,0.0
1203,0.0
1216,0.0
2,2, 1, 2, 0,14, 0.00,60.00,Tuesday
9,175634506.13607536
45,118216284.85727997
307,29122315.948799999
497,19661905.225522095
522,680801.1289789633
1020,0.0
1057,28295905.329995406
1103,266608884.34717603
1116,333261105.43397
1140,333261105.43397
1153,0.0
1203,0.0
1216,0.0
2,2, 1, 2, 0,15, 0.00,60.00,Tuesday
9,175634506.13607536
45,118216284.85727997
307,29122315.948799999
497,14998094.39384149
522,1096312.03942135
1020,0.0
1057,28295905.329995406
1103,276046439.80747726
1116,345058049.75934657
1140,345058049.75934657
1153,0.0
1203,0.0
1216,0.0
2,2, 1, 2, 0,16, 0.00,60.00,Tuesday
9,175634506.13607536
45,118216284.85727997
307,29122315.948799999
497,6529940.01335672
522,5788808.509286791
1020,0.0
1057,28295905.329995406
1103,256788345.77105177
1116,320985432.2138147
1140,320985432.2138147
1153,0.0
1203,0.0
1216,0.0
2,2, 1, 2, 0,17, 0.00,60.00,Tuesday
9,203198506.13607536
45,118216284.85727997
307,29122315.948799999
497,9263125.27001691
522,3259201.028198602
1020,27564000.0
1057,28295905.329995406
1103,255292685.00524754
1116,319115856.2565594
1140,319115856.2565594
1153,0.0
1203,0.0
1216,0.0
2,2, 1, 2, 0,18, 0.00,60.00,Tuesday
9,216980506.13607536
45,118216284.85727997
307,29122315.948799999
497,24119406.20168738
522,324462.87383024938
1020,41346000.0
1057,28295905.329995406
1103,282617868.60220798
1116,353272335.75276
1140,353272335.75276
1153,0.0
1203,0.0
1216,0.0
2,2, 1, 2, 0,19, 0.00,60.00,Tuesday
9,174339264.96711538
45,78810856.57151997
307,25886503.0656
497,36929738.28757803
522,0.0
1020,41346000.0
1057,28295905.329995406
1103,293029974.89210227
1116,366287468.6151277
1140,366287468.6151277
1153,0.0
1203,0.0
1216,0.0
2,2, 1, 2, 0,20, 0.00,60.00,Tuesday
9,174339264.96711538
45,78810856.57151997
307,25886503.0656
497,56263148.61539687
522,0.0
1020,41346000.0
1057,28295905.329995406
1103,301594712.60479816
1116,376993390.7559976
1140,376993390.7559976
1153,0.0
1203,0.0
1216,0.0
2,2, 1, 2, 0,21, 0.00,60.00,Tuesday
9,157968309.32199539
45,65675713.80959998
307,22650690.1824
497,64306238.35140096
522,0.0
1020,41346000.0
1057,28295905.329995406
1103,302098279.1326318
1116,377622848.9157896
1140,377622848.9157896
1153,0.0
1203,0.0
1216,0.0
2,2, 1, 2, 0,22, 0.00,60.00,Tuesday
9,80559537.05664002
45,26270285.52384
307,12943251.5328
497,0.0
522,0.0
1020,41346000.0
1057,0.0
1103,0.0
1116,0.0
1140,0.0
1153,0.0
1203,0.0
1216,0.0
2,2, 1, 2, 0,23, 0.00,60.00,Tuesday
9,54385197.14736001
45,6567571.38096
307,6471625.7664
497,0.0
522,0.0
1020,41346000.0
1057,0.0
1103,0.0
1116,0.0
1140,0.0
1153,0.0
1203,0.0
1216,0.0
2,2, 1, 2, 0,24, 0.00,60.00,Tuesday
9,54385197.14736001
45,6567571.38096
307,6471625.7664
497,0.0
522,0.0
1020,41346000.0
1057,0.0
1103,0.0
1116,0.0
1140,0.0
1153,0.0
1203,0.0
1216,0.0
2,3, 1, 3, 0, 1, 0.00,60.00,Wednesday
9,54385197.14736001
45,6567571.38096
307,6471625.7664
497,0.0
522,0.0
1020,41346000.0
1057,0.0
1103,0.0
1116,0.0
1140,0.0
1153,0.0
1203,0.0
1216,0.0
2,3, 1, 3, 0, 2, 0.00,60.00,Wednesday
9,54385197.14736001
45,6567571.38096
307,6471625.7664
497,0.0
522,0.0
1020,41346000.0
1057,0.0
1103,0.0
1116,0.0
1140,0.0
1153,0.0
1203,0.0
1216,0.0
2,3, 1, 3, 0, 3, 0.00,60.00,Wednesday
9,54385197.14736001
45,6567571.38096
307,6471625.7664
497,0.0
522,0.0
1020,41346000.0
1057,0.0
1103,0.0
1116,0.0
1140,0.0
1153,0.0
1203,0.0
1216,0.0
2,3, 1, 3, 0, 4, 0.00,60.00,Wednesday
9,54385197.14736001
45,6567571.38096
307,6471625.7664
497,0.0
522,0.0
1020,41346000.0
1057,0.0
1103,0.0
1116,0.0
1140,0.0
1153,0.0
1203,0.0
1216,0.0
2,3, 1, 3, 0, 5, 0.00,60.00,Wednesday
9,54451291.99226378
45,6567571.38096
307,6471625.7664
497,1653866.262848536
522,0.0
1020,41346000.0
1057,66094.84490377759
1103,1603414.5089555635
1116,2004268.1361944543
1140,2004268.1361944543
1153,0.0
1203,0.0
1216,0.0
2,3, 1, 3, 0, 6, 0.00,60.00,Wednesday
9,54530810.42692213
45,6567571.38096
307,6471625.7664
497,3642166.7432636308
522,0.0
1020,41346000.0
1057,145613.27956211777
1103,3516427.0980127479
1116,4395533.8725159349
1140,4395533.8725159349
1153,0.0
1203,0.0
1216,0.0
2,3, 1, 3, 0, 7, 0.00,60.00,Wednesday
9,82681102.47735542
45,6567571.38096
307,6471625.7664
497,346714798.9171224
522,0.0
1020,41346000.0
1057,28295905.329995406
1103,641559257.4764909
1116,801949071.8456135
1140,801949071.8456135
1153,0.0
1203,0.0
1216,0.0
2,3, 1, 3, 0, 8, 0.00,60.00,Wednesday
9,81291442.38663543
45,26270285.52384
307,12943251.5328
497,222823734.2043874
522,0.0
1020,13782000.0
1057,28295905.329995406
1103,524405422.38816997
1116,655506777.9852125
1140,655506777.9852125
1153,0.0
1203,0.0
1216,0.0
2,3, 1, 3, 0, 9, 0.00,60.00,Wednesday
9,116622309.3219954
45,65675713.80959998
307,22650690.1824
497,170028347.57799147
522,0.0
1020,0.0
1057,28295905.329995406
1103,480280173.3704258
1116,600350216.7130323
1140,600350216.7130323
1153,0.0
1203,0.0
1216,0.0
2,3, 1, 3, 0,10, 0.00,60.00,Wednesday
9,175634506.13607536
45,118216284.85727997
307,29122315.948799999
497,105257491.99554493
522,0.0
1020,0.0
1057,28295905.329995406
1103,421695176.473718
1116,527118970.59214749
1140,527118970.59214749
1153,0.0
1203,0.0
1216,0.0
2,3, 1, 3, 0,11, 0.00,60.00,Wednesday
9,175634506.13607536
45,118216284.85727997
307,29122315.948799999
497,81752506.54773066
522,0.0
1020,0.0
1057,28295905.329995406
1103,394235856.57354298
1116,492794820.71692869
1140,492794820.71692869
1153,0.0
1203,0.0
1216,0.0
2,3, 1, 3, 0,12, 0.00,60.00,Wednesday
9,175634506.13607536
45,118216284.85727997
307,29122315.948799999
497,50643998.962182428
522,0.0
1020,0.0
1057,28295905.329995406
1103,355607201.5185404
1116,444509001.89817538
1140,444509001.89817538
1153,0.0
1203,0.0
1216,0.0
2,3, 1, 3, 0,13, 0.00,60.00,Wednesday
9,175634506.13607536
45,118216284.85727997
307,29122315.948799999
497,37094098.07289077
522,0.0
1020,0.0
1057,28295905.329995406
1103,334731810.29699459
1116,418414762.87124326
1140,418414762.87124326
1153,0.0
1203,0.0
1216,0.0
2,3, 1, 3, 0,14, 0.00,60.00,Wednesday
9,175634506.13607536
45,118216284.85727997
307,29122315.948799999
497,27554522.107855947
522,143694.9030843221
1020,0.0
1057,28295905.329995406
1103,322220735.82814237
1116,402775919.7851779
1140,402775919.7851779
1153,0.0
1203,0.0
1216,0.0
2,3, 1, 3, 0,15, 0.00,60.00,Wednesday
9,175634506.13607536
45,118216284.85727997
307,29122315.948799999
497,22047198.37444185
522,595274.3061886263
1020,0.0
1057,28295905.329995406
1103,316265049.0660962
1116,395331311.3326202
1140,395331311.3326202
1153,0.0
1203,0.0
1216,0.0
2,3, 1, 3, 0,16, 0.00,60.00,Wednesday
9,175634506.13607536
45,118216284.85727997
307,29122315.948799999
497,14979801.109776887
522,4878190.425049889
1020,0.0
1057,28295905.32999541
1103,304816870.9159597
1116,381021088.6449496
1140,381021088.6449496
1153,0.0
1203,0.0
1216,0.0
2,3, 1, 3, 0,17, 0.00,60.00,Wednesday
9,203198506.13607536
45,118216284.85727997
307,29122315.948799999
497,19351696.296683469
522,835485.0439888784
1020,27564000.0
1057,28295905.329995406
1103,313372933.47083136
1116,391716166.8385392
1140,391716166.8385392
1153,0.0
1203,0.0
1216,0.0
2,3, 1, 3, 0,18, 0.00,60.00,Wednesday
9,216980506.13607536
45,118216284.85727997
307,29122315.948799999
497,35136101.18441251
522,0.0
1020,41346000.0
1057,28295905.329995406
1103,329967447.8121981
1116,412459309.7652476
1140,412459309.7652476
1153,0.0
1203,0.0
1216,0.0
2,3, 1, 3, 0,19, 0.00,60.00,Wednesday
9,174339264.96711538
45,78810856.57151997
307,25886503.0656
497,50416536.770491797
522,0.0
1020,41346000.0
1057,28295905.329995406
1103,345212733.63976159
1116,431515917.0497019
1140,431515917.0497019
1153,0.0
1203,0.0
1216,0.0
2,3, 1, 3, 0,20, 0.00,60.00,Wednesday
9,174339264.96711538
45,78810856.57151997
307,25886503.0656
497,73524412.53926903
522,0.0
1020,41346000.0
1057,28295905.329995406
1103,368361878.0173115
1116,460452347.52163937
1140,460452347.52163937
1153,0.0
1203,0.0
1216,0.0
2,3, 1, 3, 0,21, 0.00,60.00,Wednesday
9,157968309.32199539
45,65675713.80959998
307,22650690.1824
497,84651847.3964186
522,0.0
1020,41346000.0
1057,28295905.329995406
1103,379570236.14464268
1116,474462795.1808033
1140,474462795.1808033
1153,0.0
1203,0.0
1216,0.0
2,3, 1, 3, 0,22, 0.00,60.00,Wednesday
9,80559537.05664002
45,26270285.52384
307,12943251.5328
497,0.0
522,0.0
1020,41346000.0
1057,0.0
1103,0.0
1116,0.0
1140,0.0
1153,0.0
1203,0.0
1216,0.0
2,3, 1, 3, 0,23, 0.00,60.00,Wednesday
9,54385197.14736001
45,6567571.38096
307,6471625.7664
497,0.0
522,0.0
1020,41346000.0
1057,0.0
1103,0.0
1116,0.0
1140,0.0
1153,0.0
1203,0.0
1216,0.0
2,3, 1, 3, 0,24, 0.00,60.00,Wednesday
9,54385197.14736001
45,6567571.38096
307,6471625.7664
497,0.0
522,0.0
1020,41346000.0
1057,0.0
1103,0.0
1116,0.0
1140,0.0
1153,0.0
1203,0.0
1216,0.0
2,4, 1, 4, 0, 1, 0.00,60.00,Thursday
9,54385197.14736001
45,6567571.38096
307,6471625.7664
497,0.0
522,0.0
1020,41346000.0
1057,0.0
1103,0.0
1116,0.0
1140,0.0
1153,0.0
1203,0.0
1216,0.0
2,4, 1, 4, 0, 2, 0.00,60.00,Thursday
9,54477546.939582768
45,6567571.38096
307,6471625.7664
497,2306908.501330898
522,0.0
1020,41346000.0
1057,92349.79222274888
1103,2229486.5598969256
1116,2786858.1998711565
1140,2786858.1998711565
1153,0.0
1203,0.0
1216,0.0
2,4, 1, 4, 0, 3, 0.00,60.00,Thursday
9,54543996.43374953
45,6567571.38096
307,6471625.7664
497,3966748.7635900008
522,0.0
1020,41346000.0
1057,158799.28638951653
1103,3841152.0800217876
1116,4801440.100027234
1140,4801440.100027234
1153,0.0
1203,0.0
1216,0.0
2,4, 1, 4, 0, 4, 0.00,60.00,Thursday
9,54664931.19144265
45,6567571.38096
307,6471625.7664
497,7019425.928286197
522,0.0
1020,41346000.0
1057,279734.0440826521
1103,6784166.473024829
1116,8480208.091281036
1140,8480208.091281036
1153,0.0
1203,0.0
1216,0.0
2,4, 1, 4, 0, 5, 0.00,60.00,Thursday
9,54816718.5280317
45,6567571.38096
307,6471625.7664
497,10877005.572571867
522,0.0
1020,41346000.0
1057,431521.38067169088
1103,10509479.794796367
1116,13136849.743495457
1140,13136849.743495457
1153,0.0
1203,0.0
1216,0.0
2,4, 1, 4, 0, 6, 0.00,60.00,Thursday
9,54858043.891748029
45,6567571.38096
307,6471625.7664
497,11906451.880356428
522,0.0
1020,41346000.0
1057,472846.7443880224
1103,11491824.717807387
1116,14364780.897259232
1140,14364780.897259232
1153,0.0
1203,0.0
1216,0.0
2,4, 1, 4, 0, 7, 0.00,60.00,Thursday
9,82681102.47735542
45,6567571.38096
307,6471625.7664
497,375309023.19011989
522,0.0
1020,41346000.0
1057,28295905.329995406
1103,672341186.5310948
1116,840426483.1638682
1140,840426483.1638682
1153,0.0
1203,0.0
1216,0.0
2,4, 1, 4, 0, 8, 0.00,60.00,Thursday
9,81291442.38663543
45,26270285.52384
307,12943251.5328
497,239373887.39201907
522,0.0
1020,13782000.0
1057,28295905.329995406
1103,534421701.6226448
1116,668027127.0283059
1140,668027127.0283059
1153,0.0
1203,0.0
1216,0.0
2,4, 1, 4, 0, 9, 0.00,60.00,Thursday
9,116622309.3219954
45,65675713.80959998
307,22650690.1824
497,178600389.72407187
522,0.0
1020,0.0
1057,28295905.329995406
1103,468889641.4309618
1116,586112051.7887023
1140,586112051.7887023
1153,0.0
1203,0.0
1216,0.0
2,4, 1, 4, 0,10, 0.00,60.00,Thursday
9,175634506.13607536
45,118216284.85727997
307,29122315.948799999
497,108109340.13894312
522,0.0
1020,0.0
1057,28295905.329995406
1103,391033695.31820157
1116,488792119.1477519
1140,488792119.1477519
1153,0.0
1203,0.0
1216,0.0
2,4, 1, 4, 0,11, 0.00,60.00,Thursday
9,175634506.13607536
45,118216284.85727997
307,29122315.948799999
497,81914107.65401046
522,0.0
1020,0.0
1057,28295905.329995406
1103,362048299.79593178
1116,452560374.74491468
1140,452560374.74491468
1153,0.0
1203,0.0
1216,0.0
2,4, 1, 4, 0,12, 0.00,60.00,Thursday
9,175634506.13607536
45,118216284.85727997
307,29122315.948799999
497,48854449.27313128
522,0.0
1020,0.0
1057,28295905.329995406
1103,324324514.9142908
1116,405405643.6428634
1140,405405643.6428634
1153,0.0
1203,0.0
1216,0.0
2,4, 1, 4, 0,13, 0.00,60.00,Thursday
9,175634506.13607536
45,118216284.85727997
307,29122315.948799999
497,33272990.499040087
522,8793.585810346483
1020,0.0
1057,28295905.329995406
1103,301407576.49046388
1116,376759470.61307987
1140,376759470.61307987
1153,0.0
1203,0.0
1216,0.0
2,4, 1, 4, 0,14, 0.00,60.00,Thursday
9,175634506.13607536
45,118216284.85727997
307,29122315.948799999
497,23128796.884650567
522,466098.7194302306
1020,0.0
1057,28295905.329995406
1103,287977618.6318562
1116,359972023.28982028
1140,359972023.28982028
1153,0.0
1203,0.0
1216,0.0
2,4, 1, 4, 0,15, 0.00,60.00,Thursday
9,175634506.13607536
45,118216284.85727997
307,29122315.948799999
497,17378318.532989816
522,968293.683153835
1020,0.0
1057,28295905.329995406
1103,285734050.8258172
1116,357167563.53227147
1140,357167563.53227147
1153,0.0
1203,0.0
1216,0.0
2,4, 1, 4, 0,16, 0.00,60.00,Thursday
9,175634506.13607536
45,118216284.85727997
307,29122315.948799999
497,11549091.02713552
522,6011831.941946915
1020,0.0
1057,28295905.329995406
1103,277595188.4285993
1116,346993985.53574916
1140,346993985.53574916
1153,0.0
1203,0.0
1216,0.0
2,4, 1, 4, 0,17, 0.00,60.00,Thursday
9,203198506.13607536
45,118216284.85727997
307,29122315.948799999
497,17590923.64266604
522,958774.6948061736
1020,27564000.0
1057,28295905.329995406
1103,302040171.8192245
1116,377550214.7740306
1140,377550214.7740306
1153,0.0
1203,0.0
1216,0.0
2,4, 1, 4, 0,18, 0.00,60.00,Thursday
9,216980506.13607536
45,118216284.85727997
307,29122315.948799999
497,38044027.0505054
522,0.0
1020,41346000.0
1057,28295905.329995406
1103,341554624.4031015
1116,426943280.5038768
1140,426943280.5038768
1153,0.0
1203,0.0
1216,0.0
2,4, 1, 4, 0,19, 0.00,60.00,Thursday
9,174339264.96711538
45,78810856.57151997
307,25886503.0656
497,57734360.328062858
522,0.0
1020,41346000.0
1057,28295905.329995406
1103,376027576.539513
1116,470034470.67439118
1140,470034470.67439118
1153,0.0
1203,0.0
1216,0.0
2,4, 1, 4, 0,20, 0.00,60.00,Thursday
9,174339264.96711538
45,78810856.57151997
307,25886503.0656
497,83333839.26337978
522,0.0
1020,41346000.0
1057,28295905.329995406
1103,407788302.8678839
1116,509735378.5848549
1140,509735378.5848549
1153,0.0
1203,0.0
1216,0.0
2,4, 1, 4, 0,21, 0.00,60.00,Thursday
9,157968309.32199536
45,65675713.80959998
307,22650690.1824
497,94722730.85294996
522,0.0
1020,41346000.0
1057,28295905.329995406
1103,414483329.1290284
1116,518104161.41128537
1140,518104161.41128537
1153,0.0
1203,0.0
1216,0.0
2,4, 1, 4, 0,22, 0.00,60.00,Thursday
9,80559537.05664002
45,26270285.52384
307,12943251.5328
497,0.0
522,0.0
1020,41346000.0
1057,0.0
1103,0.0
1116,0.0
1140,0.0
1153,0.0
1203,0.0
1216,0.0
2,4, 1, 4, 0,23, 0.00,60.00,Thursday
9,54385197.14736001
45,6567571.38096
307,6471625.7664
497,0.0
522,0.0
1020,41346000.0
1057,0.0
1103,0.0
1116,0.0
1140,0.0
1153,0.0
1203,0.0
1216,0.0
2,4, 1, 4, 0,24, 0.00,60.00,Thursday
9,54465976.82822482
45,6567571.38096
307,6471625.7664
497,2015847.2195882905
522,0.0
1020,41346000.0
1057,80779.68086481176
1103,1952865.1080619372
1116,2441081.3850774217
1140,2441081.3850774217
1153,0.0
1203,0.0
1216,0.0
2,5, 1, 5, 0, 1, 0.00,60.00,Friday
9,54627181.45388214
45,6567571.38096
307,6471625.7664
497,6065939.662477402
522,0.0
1020,41346000.0
1057,241984.30652213575
1103,5868294.777977279
1116,7335368.472471599
1140,7335368.472471599
1153,0.0
1203,0.0
1216,0.0
2,5, 1, 5, 0, 2, 0.00,60.00,Friday
9,54947125.23815632
45,6567571.38096
307,6471625.7664
497,14135736.843285425
522,0.0
1020,41346000.0
1057,561928.0907963149
1103,13659770.417762272
1116,17074713.02220284
1140,17074713.02220284
1153,0.0
1203,0.0
1216,0.0
2,5, 1, 5, 0, 3, 0.00,60.00,Friday
9,54977563.85411952
45,6567571.38096
307,6471625.7664
497,14922115.8030991
522,0.0
1020,41346000.0
1057,592366.7067595124
1103,14430056.99192648
1116,18037571.2399081
1140,18037571.2399081
1153,0.0
1203,0.0
1216,0.0
2,5, 1, 5, 0, 4, 0.00,60.00,Friday
9,55836920.34404448
45,6567571.38096
307,6471625.7664
497,36515889.48498321
522,0.0
1020,41346000.0
1057,1451723.1966844702
1103,35304134.5325309
1116,44130168.165663618
1140,44130168.165663618
1153,0.0
1203,0.0
1216,0.0
2,5, 1, 5, 0, 5, 0.00,60.00,Friday
9,57188140.73870437
45,6567571.38096
307,6471625.7664
497,70362865.43478669
522,0.0
1020,41346000.0
1057,2802943.591344351
1103,67965765.36607161
1116,84957206.7075895
1140,84957206.7075895
1153,0.0
1203,0.0
1216,0.0
2,5, 1, 5, 0, 6, 0.00,60.00,Friday
9,58076454.5267778
45,6567571.38096
307,6471625.7664
497,92601800.0499951
522,0.0
1020,41346000.0
1057,3691257.3794177889
1103,89423952.69367358
1116,111779940.86709197
1140,111779940.86709197
1153,0.0
1203,0.0
1216,0.0
2,5, 1, 5, 0, 7, 0.00,60.00,Friday
9,82681102.47735542
45,6567571.38096
307,6471625.7664
497,443969620.24600008
522,0.0
1020,41346000.0
1057,28295905.329995406
1103,896517739.4247056
1116,1120647174.2808822
1140,1120647174.2808822
1153,0.0
1203,0.0
1216,0.0
2,5, 1, 5, 0, 8, 0.00,60.00,Friday
9,81291442.38663543
45,26270285.52384
307,12943251.5328
497,316766671.7884286
522,0.0
1020,13782000.0
1057,28295905.329995406
1103,767109216.3783112
1116,958886520.4728888
1140,958886520.4728888
1153,0.0
1203,0.0
1216,0.0
2,5, 1, 5, 0, 9, 0.00,60.00,Friday
9,116622309.3219954
45,65675713.80959998
307,22650690.1824
497,239543454.32074339
522,0.0
1020,0.0
1057,28295905.329995406
1103,683776911.8731824
1116,854721139.8414781
1140,854721139.8414781
1153,0.0
1203,0.0
1216,0.0
2,5, 1, 5, 0,10, 0.00,60.00,Friday
9,175634506.13607536
45,118216284.85727997
307,29122315.948799999
497,149284345.74896375
522,0.0
1020,0.0
1057,28295905.329995406
1103,576135648.6366017
1116,720169560.7957519
1140,720169560.7957519
1153,0.0
1203,0.0
1216,0.0
2,5, 1, 5, 0,11, 0.00,60.00,Friday
9,175634506.13607536
45,118216284.85727997
307,29122315.948799999
497,103233337.00255658
522,0.0
1020,0.0
1057,28295905.329995406
1103,499569130.8794432
1116,624461413.5993041
1140,624461413.5993041
1153,0.0
1203,0.0
1216,0.0
2,5, 1, 5, 0,12, 0.00,60.00,Friday
9,175634506.13607536
45,118216284.85727997
307,29122315.948799999
497,55897908.906746428
522,0.0
1020,0.0
1057,28295905.329995406
1103,426730957.0162247
1116,533413696.27028098
1140,533413696.27028098
1153,0.0
1203,0.0
1216,0.0
2,5, 1, 5, 0,13, 0.00,60.00,Friday
9,175634506.13607536
45,118216284.85727997
307,29122315.948799999
497,32128119.14073767
522,114612.84255171195
1020,0.0
1057,28295905.329995406
1103,385225000.69997057
1116,481531250.87496319
1140,481531250.87496319
1153,0.0
1203,0.0
1216,0.0
2,5, 1, 5, 0,14, 0.00,60.00,Friday
9,175634506.13607536
45,118216284.85727997
307,29122315.948799999
497,17059318.342155506
522,1452975.221276813
1020,0.0
1057,28295905.329995406
1103,353997262.1689298
1116,442496577.71116229
1140,442496577.71116229
1153,0.0
1203,0.0
1216,0.0
2,5, 1, 5, 0,15, 0.00,60.00,Friday
9,175634506.13607536
45,118216284.85727997
307,29122315.948799999
497,9867360.581291665
522,4012795.5871046178
1020,0.0
1057,28295905.329995406
1103,324682925.1843363
1116,405853656.4804204
1140,405853656.4804204
1153,0.0
1203,0.0
1216,0.0
2,5, 1, 5, 0,16, 0.00,60.00,Friday
9,175634506.13607536
45,118216284.85727997
307,29122315.948799999
497,6781143.581589861
522,5810297.416608041
1020,0.0
1057,28295905.329995406
1103,305506464.3978026
1116,381883080.49725326
1140,381883080.49725326
1153,0.0
1203,0.0
1216,0.0
2,5, 1, 5, 0,17, 0.00,60.00,Friday
9,203198506.13607536
45,118216284.85727997
307,29122315.948799999
497,20739555.646642038
522,2545440.188462784
1020,27564000.0
1057,28295905.329995406
1103,327994657.432067
1116,409993321.79008367
1140,409993321.79008367
1153,0.0
1203,0.0
1216,0.0
2,5, 1, 5, 0,18, 0.00,60.00,Friday
9,216980506.13607536
45,118216284.85727997
307,29122315.948799999
497,43077965.494774978
522,0.0
1020,41346000.0
1057,28295905.329995406
1103,363888603.246105
1116,454860754.0576313
1140,454860754.0576313
1153,0.0
1203,0.0