Program Version,EnergyPlus, Version 9.2.0-921312fa1d, YMD=2020.12.22 17:56
1,5,Environment Title[],Latitude[deg],Longitude[deg],Time Zone[],Elevation[m]
2,8,Day of Simulation[],Month[],Day of Month[],DST Indicator[1=yes 0=no],Hour[],StartMinute[],EndMinute[],DayType
3,5,Cumulative Day of Simulation[],Month[],Day of Month[],DST Indicator[1=yes 0=no],DayType  ! When Daily Report Variables Requested
4,2,Cumulative Days of Simulation[],Month[]  ! When Monthly Report Variables Requested
5,1,Cumulative Days of Simulation[] ! When Run Period Report Variables Requested
6,1,Calendar Year of Simulation[] ! When Annual Report Variables Requested
303,1,BULKSTORAGE,Zone Thermostat Heating Setpoint Temperature [C] !Hourly
304,1,BULKSTORAGE,Zone Thermostat Cooling Setpoint Temperature [C] !Hourly
343,1,FINESTORAGE,Zone Thermostat Heating Setpoint Temperature [C] !Hourly
344,1,FINESTORAGE,Zone Thermostat Cooling Setpoint Temperature [C] !Hourly
383,1,OFFICE,Zone Thermostat Heating Setpoint Temperature [C] !Hourly
384,1,OFFICE,Zone Thermostat Cooling Setpoint Temperature [C] !Hourly
9,1,Electricity:Facility [J] !Hourly
599,1,Heating:Electricity [J] !Hourly
659,1,Cooling:Electricity [J] !Hourly
45,1,InteriorLights:Electricity [J] !Hourly
621,1,ExteriorLights:Electricity [J] !Hourly
132,1,InteriorEquipment:Electricity [J] !Hourly
182,1,Fans:Electricity [J] !Hourly
562,1,Gas:Facility [J] !Hourly
586,1,Heating:Gas [J] !Hourly
255,1,Heating:EnergyTransfer [J] !Hourly
280,1,Cooling:EnergyTransfer [J] !Hourly
549,1,HeatingCoils:EnergyTransfer [J] !Hourly
646,1,CoolingCoils:EnergyTransfer [J] !Hourly
1385,1,FURNACE_PACU_CAV_1:1,Air System Total Heating Energy [J] !Hourly
1386,1,FURNACE_PACU_CAV_1:1,Air System Total Cooling Energy [J] !Hourly
1387,1,FURNACE_PACU_CAV_2:2,Air System Total Heating Energy [J] !Hourly
1388,1,FURNACE_PACU_CAV_2:2,Air System Total Cooling Energy [J] !Hourly
End of Data Dictionary
1,RUNPERIOD 1,  41.98, -87.92,  -6.00, 201.00
2,1, 1, 1, 0, 1, 0.00,60.00,Holiday
303,7.200000000000002
304,30.0
343,15.6
344,26.7
383,15.5
384,30.0
1385,61589029.80371469
1386,0.0
1387,469488242.1523767
1388,0.0
9,89300167.15424872
45,11542082.99495346
132,3641758.8411547804
182,34667525.31814048
255,912709311.3864427
280,0.0
549,884196528.4320512
562,1133585292.861604
586,1133585292.861604
599,0.0
621,39448800.0
646,0.0
659,0.0
2,1, 1, 1, 0, 2, 0.00,60.00,Holiday
303,7.2
304,30.0
343,15.6
344,26.7
383,15.5
384,30.0
1385,59499001.20115088
1386,0.0
1387,455249612.048916
1388,0.0
9,88295051.4007896
45,11542082.99495346
132,3641758.8411547804
182,33662409.564681369
255,1026267524.5503408
280,0.0
549,998102004.7030199
562,1279617954.7474614
586,1279617954.7474614
599,0.0
621,39448800.0
646,0.0
659,0.0
2,1, 1, 1, 0, 3, 0.00,60.00,Holiday
303,7.200000000000002
304,30.0
343,15.6
344,26.7
383,15.5
384,30.0
1385,79569701.77849773
1386,0.0
1387,612866574.2222825
1388,0.0
9,98593924.59159518
45,11542082.99495346
132,3641758.8411547804
182,43961282.755486939
255,1195279727.4170724
280,0.0
549,1162435123.37787
562,1490301440.2280386
586,1490301440.2280386
599,0.0
621,39448800.0
646,0.0
659,0.0
2,1, 1, 1, 0, 4, 0.00,60.00,Holiday
303,7.2
304,30.0
343,15.6
344,26.7
383,15.5
384,30.0
1385,60713040.39462365
1386,0.0
1387,459258188.21250876
1388,0.0
9,88622014.44033958
45,11542082.99495346
132,3641758.8411547804
182,33989372.604231338
255,1028932031.2721086
280,0.0
549,1000496388.5484334
562,1282687677.6261967
586,1282687677.6261967
599,0.0
621,39448800.0
646,0.0
659,0.0
2,1, 1, 1, 0, 5, 0.00,60.00,Holiday
303,7.200000000000002
304,30.0
343,15.6
344,26.7
383,15.5
384,30.0
1385,79730581.11602679
1386,0.0
1387,611580752.6331604
1388,0.0
9,98536151.0402956
45,11542082.99495346
132,3641758.8411547804
182,43903509.20418736
255,1192293100.5468906
280,0.0
549,1159508344.6795912
562,1486549159.8456302
586,1486549159.8456302
599,0.0
621,39448800.0
646,0.0
659,0.0
2,1, 1, 1, 0, 6, 0.00,60.00,Holiday
303,7.2
304,30.0
343,15.6
344,26.7
383,15.5
384,30.0
1385,60328748.83981
1386,0.0
1387,457520820.7829373
1388,0.0
9,88502347.48139997
45,11542082.99495346
132,3641758.8411547804
182,33869705.64529172
255,1022418917.0935717
280,0.0
549,994080319.3703687
562,1274461947.9107292
586,1274461947.9107292
599,0.0
621,39448800.0
646,0.0
659,0.0
2,1, 1, 1, 0, 7, 0.00,60.00,Holiday
303,7.200000000000002
304,30.0
343,15.6
344,26.7
383,15.5
384,30.0
1385,79486953.43155448
1386,0.0
1387,610823998.7104476
1388,0.0
9,98484215.08959827
45,11542082.99495346
132,3641758.8411547804
182,43851573.253490049
255,1192229408.462435
280,0.0
549,1159463326.9795416
562,1486491444.845566
586,1486491444.845566
599,0.0
621,39448800.0
646,0.0
659,0.0
2,1, 1, 1, 0, 8, 0.00,60.00,Holiday
303,7.2
304,30.0
343,15.6
344,26.7
383,15.5
384,30.0
1385,59845551.59971157
1386,0.0
1387,455967827.2891791
1388,0.0
9,62082802.86767275
45,11542082.99495346
132,3641758.8411547804
182,33749361.03156451
255,1014941977.4714713
280,0.0
549,986724057.6821088
562,1265030843.1821905
586,1265030843.1821905
599,0.0
621,13149600.0
646,0.0
659,0.0
2,1, 1, 1, 0, 9, 0.00,60.00,Holiday
303,7.200000000000002
304,30.0
343,15.6
344,26.7
383,15.5
384,30.0
1385,74332999.36665187
1386,0.0
1387,584934409.980668
1388,0.0
9,57223974.929390128
45,11542082.99495346
132,3641758.8411547804
182,42040133.09328188
255,1123854095.5359715
280,0.0
549,1092615561.5358897
562,1400789181.4562684
586,1400789181.4562684
599,0.0
621,0.0
646,0.0
659,0.0
2,1, 1, 1, 0,10, 0.00,60.00,Holiday
303,7.2
304,30.0
343,15.6
344,26.7
383,15.5
384,30.0
1385,52109581.14083507
1386,0.0
1387,408878919.6291857
1388,0.0
9,45673554.204228799
45,11542082.99495346
132,3641758.8411547804
182,30489712.368120556
255,875393415.7538084
280,0.0
549,849839925.8333222
562,1089538366.4529772
586,1089538366.4529772
599,0.0
621,0.0
646,0.0
659,0.0
2,1, 1, 1, 0,11, 0.00,60.00,Holiday
303,7.200000000000002
304,30.0
343,15.6
344,26.7
383,15.5
384,30.0
1385,62426277.90130051
1386,0.0
1387,496107677.88686028
1388,0.0
9,51307364.19372559
45,11542082.99495346
132,3641758.8411547804
182,36123522.357617359
255,906661059.6590499
280,0.0
549,879459084.1217213
562,1127511646.3098989
586,1127511646.3098989
599,0.0
621,0.0
646,0.0
659,0.0
2,1, 1, 1, 0,12, 0.00,60.00,Holiday
303,7.2
304,30.0
343,15.6
344,26.7
383,15.5
384,30.0
1385,43320251.63510088
1386,0.0
1387,342376435.7767638
1388,0.0
9,41181301.353860039
45,11542082.99495346
132,3641758.8411547804
182,25997459.51775179
255,680302633.8618479
280,0.0
549,658544518.0900295
562,844287843.7051659
586,844287843.7051659
599,0.0
621,0.0
646,0.0
659,0.0
2,1, 1, 1, 0,13, 0.00,60.00,Holiday
303,7.200000000000002
304,30.0
343,15.6
344,26.7
383,15.5
384,30.0
1385,54659795.99548825
1386,0.0
1387,421777822.7814399
1388,0.0
9,46458931.010434959
45,11542082.99495346
132,3641758.8411547804
182,31275089.174326719
255,718232242.4571129
280,0.0
549,694848372.3394606
562,890831246.589052
586,890831246.589052
599,0.0
621,0.0
646,0.0
659,0.0
2,1, 1, 1, 0,14, 0.00,60.00,Holiday
303,7.2
304,30.0
343,15.6
344,26.7
383,15.5
384,30.0
1385,39811781.19556423
1386,0.0
1387,299107435.5782345
1388,0.0
9,38347595.204016868
45,11542082.99495346
132,3641758.8411547804
182,23163753.367908617
255,544659595.3913672
280,0.0
549,525070996.6285367
562,673167944.3955599
586,673167944.3955599
599,0.0
621,0.0
646,0.0
659,0.0
2,1, 1, 1, 0,15, 0.00,60.00,Holiday
303,7.200000000000002
304,30.0
343,15.6
344,26.7
383,15.5
384,30.0
1385,50415633.033001478
1386,0.0
1387,385559864.022985
1388,0.0
9,44072515.18997999
45,11542082.99495346
132,3641758.8411547804
182,28888673.353871764
255,618661082.0934332
280,0.0
549,596467622.7465606
562,764702080.4443083
586,764702080.4443083
599,0.0
621,0.0
646,0.0
659,0.0
2,1, 1, 1, 0,16, 0.00,60.00,Holiday
303,7.2
304,30.0
343,15.6
344,26.7
383,15.5
384,30.0
1385,38685550.98165864
1386,0.0
1387,290804370.1164218
1388,0.0
9,37780750.67795715
45,11542082.99495346
132,3641758.8411547804
182,22596908.8418489
255,512208757.4250624
280,0.0
549,492968654.396495
562,632011095.3801218
586,632011095.3801218
599,0.0
621,0.0
646,0.0
659,0.0
2,1, 1, 1, 0,17, 0.00,60.00,Holiday
303,7.200000000000002
304,30.0
343,15.6
344,26.7
383,15.5
384,30.0
1385,51701991.53066102
1386,0.0
1387,391193905.494909
1388,0.0
9,70763733.30838596
45,11542082.99495346
132,3641758.8411547804
182,29280691.472277706
255,622603248.2722613
280,0.0
549,600161891.4890635
562,769438322.4218763
586,769438322.4218763
599,0.0
621,26299200.0
646,0.0
659,0.0
2,1, 1, 1, 0,18, 0.00,60.00,Holiday
303,7.2
304,30.0
343,15.6
344,26.7
383,15.5
384,30.0
1385,40290727.18114952
1386,0.0
1387,299856277.6482083
1388,0.0
9,77855106.29983951
45,11542082.99495346
132,3641758.8411547804
182,23222464.463731275
255,534128045.3931061
280,0.0
549,514433661.8458219
562,659530335.6997718
586,659530335.6997718
599,0.0
621,39448800.0
646,0.0
659,0.0
2,1, 1, 1, 0,19, 0.00,60.00,Holiday
303,7.200000000000002
304,30.0
343,15.6
344,26.7
383,15.5
384,30.0
1385,54530915.92638313
1386,0.0
1387,411599469.7887218
1388,0.0
9,85276527.33054427
45,11542082.99495346
132,3641758.8411547804
182,30643885.494436027
255,673784226.8177077
280,0.0
549,650576360.3853972
562,834072256.9043553
586,834072256.9043553
599,0.0
621,39448800.0
646,0.0
659,0.0
2,1, 1, 1, 0,20, 0.00,60.00,Holiday
303,7.2
304,30.0
343,15.6
344,26.7
383,15.5
384,30.0
1385,41345294.96421792
1386,0.0
1387,308639728.12262049
1388,0.0
9,78436697.50721865
45,11542082.99495346
132,3641758.8411547804
182,23804055.671110408
255,553530191.0279002
280,0.0
549,533493307.678567
562,683965779.0750859
586,683965779.0750859
599,0.0
621,39448800.0
646,0.0
659,0.0
2,1, 1, 1, 0,21, 0.00,60.00,Holiday
303,7.200000000000002
304,30.0
343,15.6
344,26.7
383,15.5
384,30.0
1385,53733549.00376218
1386,0.0
1387,406420848.3545022
1388,0.0
9,84920810.35758731
45,11542082.99495346
132,3641758.8411547804
182,30288168.52147907
255,658640574.3245684
280,0.0
549,635643827.9441356
562,814927984.5437635
586,814927984.5437635
599,0.0
621,39448800.0
646,0.0
659,0.0
2,1, 1, 1, 0,22, 0.00,60.00,Holiday
303,7.2
304,30.0
343,15.6
344,26.7
383,15.5
384,30.0
1385,40814852.370490107
1386,0.0
1387,305180980.29015216
1388,0.0
9,78196703.6504203
45,11542082.99495346
132,3641758.8411547804
182,23564061.814312053
255,546380688.2298663
280,0.0
549,526490397.7662849
562,674987689.443955
586,674987689.443955
599,0.0
621,39448800.0
646,0.0
659,0.0
2,1, 1, 1, 0,23, 0.00,60.00,Holiday
303,7.200000000000002
304,30.0
343,15.6
344,26.7
383,15.5
384,30.0
1385,53676401.75345405
1386,0.0
1387,406554191.7098114
1388,0.0
9,84920966.539694
45,11542082.99495346
132,3641758.8411547804
182,30288324.70358575
255,660473216.9995568
280,0.0
549,637479102.3928909
562,817280900.5037063
586,817280900.5037063
599,0.0
621,39448800.0
646,0.0
659,0.0
2,1, 1, 1, 0,24, 0.00,60.00,Holiday
303,7.2
304,30.0
343,15.6
344,26.7
383,15.5
384,30.0
1385,41668937.85780823
1386,0.0
1387,312165627.7367469
1388,0.0
9,78666251.31680914
45,11542082.99495346
132,3641758.8411547804
182,24033609.480700897
255,565969993.4463142
280,0.0
549,545734987.1304538
562,699660239.9108383
586,699660239.9108383
599,0.0
621,39448800.0
646,0.0
659,0.0
2,2, 1, 2, 0, 1, 0.00,60.00,Monday
303,7.200000000000002
304,30.0
343,15.6
344,26.7
383,15.5
384,30.0
1385,57601313.130256447
1386,0.0
1387,436235013.1939156
1388,0.0
9,86907461.92399922
45,11542082.99495346
132,3641758.8411547804
182,32274820.08789099
255,738446500.1573589
280,0.0
549,714206460.7697775
562,915649308.6792019
586,915649308.6792019
599,0.0
621,39448800.0
646,0.0
659,0.0
2,2, 1, 2, 0, 2, 0.00,60.00,Monday
303,7.2
304,30.0
343,15.6
344,26.7
383,15.5
384,30.0
1385,45155954.32258408
1386,0.0
1387,338124074.62821248
1388,0.0
9,80419182.62597309
45,11542082.99495346
132,3641758.8411547804
182,25786540.789864854
255,643253951.0470344
280,0.0
549,621701130.1463833
562,797052730.9569017
586,797052730.9569017
599,0.0
621,39448800.0
646,0.0
659,0.0
2,2, 1, 2, 0, 3, 0.00,60.00,Monday
303,7.200000000000002
304,30.0
343,15.6
344,26.7
383,15.5
384,30.0
1385,59343594.35921237
1386,0.0
1387,447114753.9900888
1388,0.0
9,87632579.80731754
45,11542082.99495346
132,3641758.8411547804
182,32999937.971209326
255,760318836.664819
280,0.0
549,735758703.9318152
562,943280389.6561732
586,943280389.6561732
599,0.0
621,39448800.0
646,0.0
659,0.0
2,2, 1, 2, 0, 4, 0.00,60.00,Monday
303,7.2
304,30.0
343,15.6
344,26.7
383,15.5
384,30.0
1385,45137538.62147673
1386,0.0
1387,336940328.87777969
1388,0.0
9,80350433.25962277
45,11542082.99495346
132,3641758.8411547804
182,25717791.42351452
255,639646217.0629466
280,0.0
549,618170865.7855916
562,792526751.0071687
586,792526751.0071687
599,0.0
621,39448800.0
646,0.0
659,0.0
2,2, 1, 2, 0, 5, 0.00,60.00,Monday
303,7.200000000000002
304,30.0
343,15.6
344,26.7
383,15.5
384,30.0
1385,57091395.80383815
1386,0.0
1387,430054076.86011186
1388,0.0
9,86486711.61228773
45,11542082.99495346
132,3641758.8411547804
182,31854069.776179509
255,709413996.4249904
280,0.0
549,685710358.84741
562,879115844.6761668
586,879115844.6761668
599,0.0
621,39448800.0
646,0.0
659,0.0
2,2, 1, 2, 0, 6, 0.00,60.00,Monday
303,7.2
304,30.0
343,15.6
344,26.7
383,15.5
384,30.0
1385,41652006.88484736
1386,0.0
1387,312132014.5117466
1388,0.0
9,78668886.2281831
45,11542082.99495346
132,3641758.8411547804
182,24036244.392074866
255,559433846.5648613
280,0.0
549,539193124.8352944
562,691273236.9683261
586,691273236.9683261
599,0.0
621,39448800.0
646,0.0
659,0.0
2,2, 1, 2, 0, 7, 0.00,60.00,Monday
303,7.2
304,30.0
343,15.6
344,26.7
383,21.0
384,30.0
1385,123886413.61064454
1386,0.0
1387,463581350.0032276
1388,0.0
9,127608012.49696788
45,11542082.99495346
132,3641758.8411547804
182,72975370.66085965
255,752127098.8932282
280,0.0
549,713664428.2012694
562,914954395.1298325
586,914954395.1298325
599,0.0
621,39448800.0
646,0.0
659,0.0
2,2, 1, 2, 0, 8, 0.00,60.00,Monday
303,7.2
304,24.0
343,15.6
344,26.7
383,21.0
384,24.0
1385,100520884.97570579
1386,0.0
1387,402262397.84560319
1388,0.0
9,150502096.84644736
45,46168331.97981384
132,18208794.2057739
182,72975370.66085965
255,652953002.6226688
280,0.0
549,608710716.7048214
562,780398354.7497709
586,780398354.7497709
599,0.0
621,13149600.0
646,0.0
659,0.0
2,2, 1, 2, 0, 9, 0.00,60.00,Monday
303,7.2
304,24.0
343,15.6
344,26.7
383,21.0
384,24.0
1385,88895853.85327761
1386,0.0
1387,375884678.0053926
1388,0.0
9,182904022.35477213
45,80794580.96467422
132,29134070.729238243
182,72975370.66085965
255,590968410.7935476
280,0.0
549,546135453.0114205
562,700173657.7069494
586,700173657.7069494
599,0.0
621,0.0
646,0.0
659,0.0
2,2, 1, 2, 0,10, 0.00,60.00,Monday
303,7.2
304,24.0
343,15.6
344,26.7
383,21.0
384,24.0
1385,80510948.05276533
1386,0.0
1387,345973890.0170792
1388,0.0
9,209629947.1858338
45,103878746.95458116
132,32775829.57039302
182,72975370.66085965
255,525465533.7533976
280,0.0
549,479614834.2017378
562,614890813.0791509
586,614890813.0791509
599,0.0
621,0.0
646,0.0
659,0.0
2,2, 1, 2, 0,11, 0.00,60.00,Monday
303,7.2
304,24.0
343,15.6
344,26.7
383,21.0
384,24.0
1385,75059147.56587853
1386,0.0
1387,318148375.008059
1388,0.0
9,209629947.1858338
45,103878746.95458116
132,32775829.57039302
182,72975370.66085963
255,461754213.48060169
280,0.0
549,414385173.19799289
562,531263042.56152936
586,531263042.56152936
599,0.0
621,0.0
646,0.0
659,0.0
2,2, 1, 2, 0,12, 0.00,60.00,Monday
303,7.2
304,24.0
343,15.6
344,26.7
383,21.0
384,24.0
1385,71039950.62372044
1386,0.0
1387,297951900.75127497
1388,0.0
9,209629947.1858338
45,103878746.95458116
132,32775829.57039302
182,72975370.66085965
255,417478377.611411
280,0.0
549,369331576.9519367
562,473502021.73325219
586,473502021.73325219
599,0.0
621,0.0
646,0.0
659,0.0
2,2, 1, 2, 0,13, 0.00,60.00,Monday
303,7.2
304,24.0
343,15.6
344,26.7
383,21.0
384,24.0
1385,70338672.79017142
1386,0.0
1387,288630204.9778378
1388,0.0
9,194446105.34972555
45,92336663.95962768
132,29134070.729238243
182,72975370.66085965
255,402795306.06921097
280,0.0
549,354654975.6721443
562,454685866.24633887
586,454685866.24633887
599,0.0
621,0.0
646,0.0
659,0.0
2,2, 1, 2, 0,14, 0.00,60.00,Monday
303,7.2
304,24.0
343,15.6
344,26.7
383,21.0
384,24.0
1385,69168331.17286559
1386,0.0
1387,294113975.8041844
1388,0.0
9,209629947.1858338
45,103878746.95458116
132,32775829.57039302
182,72975370.66085965
255,420494452.76247617
280,0.0
549,374071510.49981859
562,479578859.61515197
586,479578859.61515197
599,0.0
621,0.0
646,0.0
659,0.0
2,2, 1, 2, 0,15, 0.00,60.00,Monday
303,7.2
304,24.0
343,15.6
344,26.7
383,21.0
384,24.0
1385,70764210.92341125
1386,0.0
1387,312845167.2514444
1388,0.0
9,209629947.1858338
45,103878746.95458116
132,32775829.57039302
182,72975370.66085965
255,461115949.20863929
280,0.0
549,416507719.78024068
562,533984256.1285136
586,533984256.1285136
599,0.0
621,0.0
646,0.0
659,0.0
2,2, 1, 2, 0,16, 0.00,60.00,Monday
303,7.2
304,24.0
343,15.6
344,26.7
383,21.0
384,24.0
1385,70105518.10447379
1386,0.0
1387,311469020.6138081
1388,0.0
9,209629947.1858338
45,103878746.95458116
132,32775829.57039302
182,72975370.66085965
255,446749648.9199531
280,0.0
549,401372416.91253069
562,514580021.68273159
586,514580021.68273159
599,0.0
621,0.0
646,0.0
659,0.0
2,2, 1, 2, 0,17, 0.00,60.00,Monday
303,7.2
304,24.0
343,15.6
344,26.7
383,21.0
384,24.0
1385,69965357.66082433
1386,0.0
1387,310011635.65544697
1388,0.0
9,235929147.1858338
45,103878746.95458116
132,32775829.57039302
182,72975370.66085965
255,433917954.598319
280,0.0
549,387691971.7701755
562,497040989.4489429
586,497040989.4489429
599,0.0
621,26299200.0
646,0.0
659,0.0
2,2, 1, 2, 0,18, 0.00,60.00,Monday
303,7.200000000000002
304,30.0
343,15.6
344,26.7
383,15.5
384,30.0
1385,19496558.590654617
1386,0.0
1387,298653957.34936907
1388,0.0
9,110865280.1695033
45,34626248.98486037
132,14567035.364619121
182,22223195.82002382
255,434216270.39441636
280,0.0
549,415216966.3518692
562,532329444.040858
586,532329444.040858
599,0.0
621,39448800.0
646,0.0
659,0.0
2,2, 1, 2, 0,19, 0.00,60.00,Monday
303,7.200000000000002
304,30.0
343,15.6
344,26.7
383,15.5
384,30.0
1385,32249809.744149615
1386,0.0
1387,259106582.11336834
1388,0.0
9,74924579.78357537
45,11542082.99495346
132,3641758.8411547804
182,20291937.947467138
255,416496719.7225479
280,0.0
549,398957770.6160251
562,511484321.3025962
586,511484321.3025962
599,0.0
621,39448800.0
646,0.0
659,0.0
2,2, 1, 2, 0,20, 0.00,60.00,Monday
303,7.200000000000002
304,30.0
343,15.6
344,26.7
383,15.5
384,30.0
1385,30845771.57514266
1386,0.0
1387,339295253.3131896
1388,0.0
9,79755116.48623377
45,11542082.99495346
132,3641758.8411547804
182,25122474.650125535
255,475848562.37685999
280,0.0
549,456136209.73021146
562,584790012.4746299
586,584790012.4746299
599,0.0
621,39448800.0
646,0.0
659,0.0
2,2, 1, 2, 0,21, 0.00,60.00,Monday
303,7.200000000000002
304,30.0
343,15.6
344,26.7
383,15.5
384,30.0
1385,34709656.0293626
1386,0.0
1387,248914354.31947626
1388,0.0
9,74402283.61701584
45,11542082.99495346
132,3641758.8411547804
182,19769641.7809076
255,379052646.7540093
280,0.0
549,361947850.4330698
562,464035705.6834229
586,464035705.6834229
599,0.0
621,39448800.0
646,0.0
659,0.0
2,2, 1, 2, 0,22, 0.00,60.00,Monday
303,7.200000000000002
304,30.0
343,15.6
344,26.7
383,15.5
384,30.0
1385,30563667.339031727
1386,0.0
1387,324569715.3085736
1388,0.0
9,78835349.50039359
45,11542082.99495346
132,3641758.8411547804
182,24202707.664285359
255,434758334.2480291
280,0.0
549,415766981.37238898
562,533034591.50306287
586,533034591.50306287
599,0.0
621,39448800.0
646,0.0
659,0.0
2,2, 1, 2, 0,23, 0.00,60.00,Monday
303,7.200000000000002
304,30.0
343,15.6
344,26.7
383,15.5
384,30.0
1385,37050267.90856526
1386,0.0
1387,252709340.00081546
1388,0.0
9,74742996.44764753
45,11542082.99495346
132,3641758.8411547804
182,20110354.611539287
255,399538194.1553986
280,0.0
549,382133141.7036293
562,489914284.2354222
586,489914284.2354222
599,0.0
621,39448800.0
646,0.0
659,0.0
2,2, 1, 2, 0,24, 0.00,60.00,Monday
303,7.200000000000002
304,30.0
343,15.6
344,26.7
383,15.5
384,30.0
1385,35360451.54160373
1386,0.0
1387,356853936.6694502
1388,0.0
9,81019848.85819605
45,11542082.99495346
132,3641758.8411547804
182,26387207.022087814
255,524670951.27365007
280,0.0
549,504266086.04264107
562,646494982.10595
586,646494982.10595
599,0.0
621,39448800.0
646,0.0
659,0.0
2,3, 1, 3, 0, 1, 0.00,60.00,Tuesday
303,7.200000000000002
304,30.0
343,15.6
344,26.7
383,15.5
384,30.0
1385,41149810.63207278
1386,0.0
1387,271002911.53901156
1388,0.0
9,76053421.20455529
45,11542082.99495346
132,3641758.8411547804
182,21420779.36844705
255,450838710.9046938
280,0.0
549,432483449.96814206
562,554465961.4976181
586,554465961.4976181
599,0.0
621,39448800.0
646,0.0
659,0.0
2,3, 1, 3, 0, 2, 0.00,60.00,Tuesday
303,7.200000000000002
304,30.0
343,15.6
344,26.7
383,15.5
384,30.0
1385,37069531.99141235
1386,0.0
1387,364272749.9374229
1388,0.0
9,81549062.9345849
45,11542082.99495346
132,3641758.8411547804
182,26916421.098476657
255,539636264.70092
280,0.0
549,518950928.34327986
562,665321703.004205
586,665321703.004205
599,0.0
621,39448800.0
646,0.0
659,0.0
2,3, 1, 3, 0, 3, 0.00,60.00,Tuesday
303,7.200000000000002
304,30.0
343,15.6
344,26.7
383,15.5
384,30.0
1385,42118117.8055402
1386,0.0
1387,272170761.8027381
1388,0.0
9,76168333.7205798
45,11542082.99495346
132,3641758.8411547804
182,21535691.88447157
255,448739997.5232479
280,0.0
549,430314791.2692983
562,551685629.8324337
586,551685629.8324337
599,0.0
621,39448800.0
646,0.0
659,0.0
2,3, 1, 3, 0, 4, 0.00,60.00,Tuesday
303,7.200000000000002
304,30.0
343,15.6
344,26.7
383,15.5
384,30.0
1385,37224219.21266125
1386,0.0
1387,364028382.2237328
1388,0.0
9,81547074.22044367
45,11542082.99495346
132,3641758.8411547804
182,26914432.38433543
255,535837056.24419429
280,0.0
549,515148573.3185451
562,660446888.8699296
586,660446888.8699296
599,0.0
621,39448800.0
646,0.0
659,0.0
2,3, 1, 3, 0, 5, 0.00,60.00,Tuesday
303,7.200000000000002
304,30.0
343,15.6
344,26.7
383,15.5
384,30.0
1385,44914427.271980758
1386,0.0
1387,284912484.08740809
1388,0.0
9,77090672.23368527
45,11542082.99495346
132,3641758.8411547804
182,22458030.39757704
255,491680593.58818659
280,0.0
549,472545662.8676091
562,605827772.907191
586,605827772.907191
599,0.0
621,39448800.0
646,0.0
659,0.0
2,3, 1, 3, 0, 6, 0.00,60.00,Tuesday
303,7.200000000000002
304,30.0
343,15.6
344,26.7
383,15.5
384,30.0
1385,42162215.64687437
1386,0.0
1387,401797603.0685742
1388,0.0
9,84081287.41271954
45,11542082.99495346
132,3641758.8411547804
182,29448645.576611297
255,633609421.9106251
280,0.0
549,611507211.2981783
562,783983604.2284337
586,783983604.2284337
599,0.0
621,39448800.0
646,0.0
659,0.0
2,3, 1, 3, 0, 7, 0.00,60.00,Tuesday
303,7.2
304,30.0
343,15.6
344,26.7
383,21.0
384,30.0
1385,123980562.82041687
1386,0.0
1387,445240675.5428892
1388,0.0
9,127608012.49696788
45,11542082.99495346
132,3641758.8411547804
182,72975370.66085965
255,765535661.6298169
280,0.0
549,726705597.3271176
562,931673842.7270739
586,931673842.7270739
599,0.0
621,39448800.0
646,0.0
659,0.0
2,3, 1, 3, 0, 8, 0.00,60.00,Tuesday
303,7.2
304,24.0
343,15.6
344,26.7
383,21.0
384,24.0
1385,103764054.01400215
1386,0.0
1387,439483941.6594502
1388,0.0
9,150502096.84644736
45,46168331.97981384
132,18208794.2057739
182,72975370.66085965
255,745032095.6405478
280,0.0
549,705377017.7656021
562,904329509.9559002
586,904329509.9559002
599,0.0
621,13149600.0
646,0.0
659,0.0
2,3, 1, 3, 0, 9, 0.00,60.00,Tuesday
303,7.2
304,24.0
343,15.6
344,26.7
383,21.0
384,24.0
1385,95267026.68711554
1386,0.0
1387,433709701.8261156
1388,0.0
9,182904022.35477213
45,80794580.96467422
132,29134070.729238243
182,72975370.66085965
255,737118485.4449
280,0.0
549,698551610.3125705
562,895578987.5802186
586,895578987.5802186
599,0.0
621,0.0
646,0.0
659,0.0
2,3, 1, 3, 0,10, 0.00,60.00,Tuesday
303,7.2
304,24.0
343,15.6
344,26.7
383,21.0
384,24.0
1385,90107934.96706517
1386,0.0
1387,427148950.5872
1388,0.0
9,209629947.1858338
45,103878746.95458116
132,32775829.57039302
182,72975370.66085965
255,730833464.4985402
280,0.0
549,693044090.5716663
562,888518064.8354695
586,888518064.8354695
599,0.0
621,0.0
646,0.0
659,0.0
2,3, 1, 3, 0,11, 0.00,60.00,Tuesday
303,7.2
304,24.0
343,15.6
344,26.7
383,21.0
384,24.0
1385,86620398.37787263
1386,0.0
1387,412566708.8754236
1388,0.0
9,209629947.1858338
45,103878746.95458116
132,32775829.57039302
182,72975370.66085965
255,702341455.3099792
280,0.0
549,664058263.1025388
562,851356747.5673574
586,851356747.5673574
599,0.0
621,0.0
646,0.0
659,0.0
2,3, 1, 3, 0,12, 0.00,60.00,Tuesday
303,7.2
304,24.0
343,15.6
344,26.7
383,21.0
384,24.0
1385,83339612.36340966
1386,0.0
1387,394760192.53352388
1388,0.0
9,209629947.1858338
45,103878746.95458116
132,32775829.57039302
182,72975370.66085965
255,662776971.4491353
280,0.0
549,623550795.4268996
562,799424096.7011532
586,799424096.7011532
599,0.0
621,0.0
646,0.0
659,0.0
2,3, 1, 3, 0,13, 0.00,60.00,Tuesday
303,7.2
304,24.0
343,15.6
344,26.7
383,21.0
384,24.0
1385,82233223.57070184
1386,0.0
1387,381531778.996621
1388,0.0
9,194446105.34972555
45,92336663.95962768
132,29134070.729238243
182,72975370.66085965
255,633073721.8926298
280,0.0
549,592928137.0460438
562,760164278.2641585
586,760164278.2641585
599,0.0
621,0.0
646,0.0
659,0.0
2,3, 1, 3, 0,14, 0.00,60.00,Tuesday
303,7.2
304,24.0
343,15.6
344,26.7
383,21.0
384,24.0
1385,78741314.04041748
1386,0.0
1387,370848250.49910947
1388,0.0
9,209629947.1858338
45,103878746.95458116
132,32775829.57039302
182,72975370.66085965
255,606315090.9430879
280,0.0
549,565813556.3080429
562,725401995.2667216
586,725401995.2667216
599,0.0
621,0.0
646,0.0
659,0.0
2,3, 1, 3, 0,15, 0.00,60.00,Tuesday
303,7.2
304,24.0
343,15.6
344,26.7
383,21.0
384,24.0
1385,77773240.33665352
1386,0.0
1387,370336384.1685648
1388,0.0
9,209629947.1858338
45,103878746.95458116
132,32775829.57039302
182,72975370.66085965
255,601197860.1249465
280,0.0
549,560696009.5842111
562,718841037.9284757
586,718841037.9284757
599,0.0
621,0.0
646,0.0
659,0.0
2,3, 1, 3, 0,16, 0.00,60.00,Tuesday
303,7.2
304,24.0
343,15.6
344,26.7
383,21.0
384,24.0
1385,77418327.56946886
1386,0.0
1387,372089884.2782177
1388,0.0
9,209629947.1858338
45,103878746.95458116
132,32775829.57039302
182,72975370.66085965
255,600756024.8535421
280,0.0
549,560254085.9338027
562,718274469.145901
586,718274469.145901
599,0.0
621,0.0
646,0.0
659,0.0
2,3, 1, 3, 0,17, 0.00,60.00,Tuesday
303,7.2
304,24.0
343,15.6
344,26.7
383,21.0
384,24.0
1385,78568545.28671777
1386,0.0
1387,379027028.67184379
1388,0.0
9,235929147.1858338
45,103878746.95458116
132,32775829.57039302
182,72975370.66085965
255,611032670.6563503
280,0.0
549,570536473.9618797
562,731457017.8998457
586,731457017.8998457
599,0.0
621,26299200.0
646,0.0
659,0.0
2,3, 1, 3, 0,18, 0.00,60.00,Tuesday
303,7.200000000000002
304,30.0
343,15.6
344,26.7
383,15.5
384,30.0
1385,24941322.376625565
1386,0.0
1387,350873011.4260661
1388,0.0
9,114377709.91678663
45,34626248.98486037
132,14567035.364619121
182,25735625.567307138
255,579359337.5176557
280,0.0
549,557833047.0378343
562,715170573.1254287
586,715170573.1254287
599,0.0
621,39448800.0
646,0.0
659,0.0
2,3, 1, 3, 0,19, 0.00,60.00,Tuesday
303,7.200000000000002
304,30.0
343,15.6
344,26.7
383,15.5
384,30.0
1385,39291544.05563447
1386,0.0
1387,304419704.6871728
1388,0.0
9,78073866.7694547
45,11542082.99495346
132,3641758.8411547804
182,23441224.933346459
255,561620695.3553349
280,0.0
549,541752873.8596153
562,694554966.4866862
586,694554966.4866862
599,0.0
621,39448800.0
646,0.0
659,0.0
2,3, 1, 3, 0,20, 0.00,60.00,Tuesday
303,7.200000000000002
304,30.0
343,15.6
344,26.7
383,15.5
384,30.0
1385,38789730.817219298
1386,0.0
1387,416482725.2881487
1388,0.0
9,84847881.88201908
45,11542082.99495346
132,3641758.8411547804
182,30215240.04591085
255,675472202.0668414
280,0.0
549,652796069.0873249
562,836918037.2914422
586,836918037.2914422
599,0.0
621,39448800.0
646,0.0
659,0.0
2,3, 1, 3, 0,21, 0.00,60.00,Tuesday
303,7.200000000000002
304,30.0
343,15.6
344,26.7
383,15.5
384,30.0
1385,44976561.29389292
1386,0.0
1387,315008428.70075359
1388,0.0
9,78974645.34225177
45,11542082.99495346
132,3641758.8411547804
182,24342003.506143534
255,588637174.4591622
280,0.0
549,568184933.7697926
562,728442222.7817854
586,728442222.7817854
599,0.0
621,39448800.0
646,0.0
659,0.0
2,3, 1, 3, 0,22, 0.00,60.00,Tuesday
303,7.200000000000002
304,30.0
343,15.6
344,26.7
383,15.5
384,30.0
1385,41637256.681498769
1386,0.0
1387,424355489.82651838
1388,0.0
9,85438994.02908883
45,11542082.99495346
132,3641758.8411547804
182,30806352.192980589
255,694362006.5478319
280,0.0
549,671510113.2779758
562,860910401.6384305
586,860910401.6384305
599,0.0
621,39448800.0
646,0.0
659,0.0
2,3, 1, 3, 0,23, 0.00,60.00,Tuesday
303,7.200000000000002
304,30.0
343,15.6
344,26.7
383,15.5
384,30.0
1385,47627265.46897556
1386,0.0
1387,320433513.76167336
1388,0.0
9,79420816.16469255
45,11542082.99495346
132,3641758.8411547804
182,24788174.328584326
255,603162436.0276939
280,0.0
549,582435643.3848482
562,746712363.313908
586,746712363.313908
599,0.0
621,39448800.0
646,0.0
659,0.0
2,3, 1, 3, 0,24, 0.00,60.00,Tuesday
303,7.200000000000002
304,30.0
343,15.6
344,26.7
383,15.5
384,30.0
1385,43372371.750345069
1386,0.0
1387,430109028.2392343
1388,0.0
9,85858541.08681911
45,11542082.99495346
132,3641758.8411547804
182,31225899.250710876
255,706340669.6495836
280,0.0
549,683375601.1542863
562,876122565.5824186
586,876122565.5824186
599,0.0
621,39448800.0
646,0.0
659,0.0
2,4, 1, 4, 0, 1, 0.00,60.00,Wednesday
303,7.200000000000002
304,30.0
343,15.6
344,26.7
383,15.5
384,30.0
1385,49474015.441225
1386,0.0
1387,323703130.6690851
1388,0.0
9,79704767.28371419
45,11542082.99495346
132,3641758.8411547804
182,25072125.44760595
255,611359528.559888
280,0.0
549,590466492.3960316
562,757008323.5846559
586,757008323.5846559
599,0.0
621,39448800.0
646,0.0
659,0.0
2,4, 1, 4, 0, 2, 0.00,60.00,Wednesday
303,7.200000000000002
304,30.0
343,15.6
344,26.7
383,15.5
384,30.0
1385,44565872.10341436
1386,0.0
1387,432729130.0878994
1388,0.0
9,86071390.180834
45,11542082.99495346
132,3641758.8411547804
182,31438748.344725748
255,712119812.3354325
280,0.0
549,689115761.9899987
562,883481746.141024