Program Version,EnergyPlus, Version 9.2.0-921312fa1d, YMD=2020.12.22 18:03
1,5,Environment Title[],Latitude[deg],Longitude[deg],Time Zone[],Elevation[m]
2,8,Day of Simulation[],Month[],Day of Month[],DST Indicator[1=yes 0=no],Hour[],StartMinute[],EndMinute[],DayType
3,5,Cumulative Day of Simulation[],Month[],Day of Month[],DST Indicator[1=yes 0=no],DayType  ! When Daily Meters Requested
4,2,Cumulative Days of Simulation[],Month[]  ! When Monthly Meters Requested
5,1,Cumulative Days of Simulation[] ! When Run Period Meters Requested
6,1,Calendar Year of Simulation[] ! When Annual Meters Requested
9,1,Electricity:Facility [J] !Hourly
2923,1,Heating:Electricity [J] !Hourly
2872,1,Cooling:Electricity [J] !Hourly
45,1,InteriorLights:Electricity [J] !Hourly
2834,1,ExteriorLights:Electricity [J] !Hourly
682,1,InteriorEquipment:Electricity [J] !Hourly
2688,1,Fans:Electricity [J] !Hourly
2984,1,Pumps:Electricity [J] !Hourly
1190,1,Refrigeration:Electricity [J] !Hourly
1056,1,Gas:Facility [J] !Hourly
2910,1,Heating:Gas [J] !Hourly
1092,1,InteriorEquipment:Gas [J] !Hourly
1372,1,WaterSystems:Gas [J] !Hourly
1509,1,Heating:EnergyTransfer [J] !Hourly
1534,1,Cooling:EnergyTransfer [J] !Hourly
2535,1,WaterSystems:EnergyTransfer [J] !Hourly
1165,1,Refrigeration:EnergyTransfer [J] !Hourly
2746,1,HeatingCoils:EnergyTransfer [J] !Hourly
2859,1,CoolingCoils:EnergyTransfer [J] !Hourly
End of Data Dictionary
1,RUNPERIOD 1,  41.98, -87.92,  -6.00, 201.00
2,1, 1, 1, 0, 1, 0.00,60.00,Holiday
9,258365347.11016909
45,85725350.6868
682,105272514.0
1056,760425570.7221875
1092,11540448.000000002
1165,14445867.717347054
1190,5639946.485924152
1372,72000.0
1509,362082677.66614297
1534,2883555.1290622537
2535,2864062.8083613307
2688,22463587.886627906
2746,541933047.5609218
2834,37868400.0
2859,0.0
2872,0.0
2910,748813122.7221875
2923,0.0
2984,1395548.050816967
2,1, 1, 1, 0, 2, 0.00,60.00,Holiday
9,256137110.28520645
45,85725350.6868
682,105272514.0
1056,744480330.0794638
1092,11540448.000000002
1165,13479486.890698307
1190,5474330.724022473
1372,72000.0
1509,377882965.5938074
1534,1181269.9868825325
2535,2864062.8160470507
2688,20195767.223686737
2746,556791661.0428665
2834,37868400.0
2859,0.0
2872,0.0
2910,732867882.0794638
2923,0.0
2984,1600747.650697185
2,1, 1, 1, 0, 3, 0.00,60.00,Holiday
9,261015806.95121656
45,85725350.6868
682,105272514.0
1056,1010328295.4539127
1092,11540448.000000002
1165,13039415.588333104
1190,5398972.7326680929
1372,10379085.907417568
1509,520696294.86347916
1534,1444480.942361326
2535,2864062.8109649259
2688,24190594.923590747
2746,732386946.1554278
2834,37868400.0
2859,0.0
2872,0.0
2910,988408761.5464952
2923,0.0
2984,2559974.6081576889
2,1, 1, 1, 0, 4, 0.00,60.00,Holiday
9,256208753.93801994
45,85725350.6868
682,105272514.0
1056,772353172.347105
1092,11540448.000000002
1165,12893762.786096715
1190,5374001.068670536
1372,72000.0
1509,407788503.9698896
1534,943856.8194713045
2535,2864062.816679176
2688,20195767.223686737
2746,582458335.6217278
2834,37868400.0
2859,0.0
2872,0.0
2910,760740724.347105
2923,0.0
2984,1772720.958862672
2,1, 1, 1, 0, 5, 0.00,60.00,Holiday
9,261984959.00221468
45,85725350.6868
682,105272514.0
1056,1048582449.8788788
1092,11540448.000000002
1165,16109133.964413945
1190,6132062.674700566
1372,10379524.277995915
1509,553548276.2828976
1534,672331.7984390662
2535,2864062.805689576
2688,24190594.923590747
2746,762342356.4418269
2834,37868400.0
2859,0.0
2872,0.0
2910,1026662477.600883
2923,0.0
2984,2796036.7171233075
2,1, 1, 1, 0, 6, 0.00,60.00,Holiday
9,257020222.8449232
45,85725350.6868
682,105272514.0
1056,793514453.4834036
1092,11540448.000000002
1165,15888695.128810469
1190,6081024.298628147
1372,72000.0
1509,425914526.83724167
1534,194362.6829819648
2535,2864062.816986044
2688,20195767.223686737
2746,598532823.0045033
2834,37868400.0
2859,0.0
2872,0.0
2910,781902005.4834036
2923,0.0
2984,1877166.6358083047
2,1, 1, 1, 0, 7, 0.00,60.00,Holiday
9,262075088.2394703
45,85725350.6868
682,105272514.0
1056,1071304323.3877082
1092,11540448.000000002
1165,16470719.825379638
1190,6129947.356573366
1372,10379439.590418337
1509,571747884.7747045
1534,24907.28429037723
2535,2864062.816411568
2688,24190594.923590747
2746,779712175.470466
2834,37868400.0
2859,0.0
2872,0.0
2910,1049384435.7972899
2923,0.0
2984,2888281.272506181
2,1, 1, 1, 0, 8, 0.00,60.00,Holiday
9,230772310.76100645
45,85725350.6868
682,105272514.0
1056,593973146.7484797
1092,11540448.000000002
1165,15525983.381136127
1190,5866791.295828506
1372,72000.0
1509,295161533.0712917
1534,0.0
2535,2864062.814351479
2688,20195767.223686737
2746,466778214.3129756
2834,12622800.0
2859,0.0
2872,0.0
2910,582360698.7484797
2923,0.0
2984,1089087.5546911467
2,1, 1, 1, 0, 9, 0.00,60.00,Holiday
9,220409232.72918607
45,85725350.6868
682,105272514.0
1056,697466120.6356062
1092,11540448.000000002
1165,15740815.580388017
1190,5903790.464653304
1372,10386028.17445437
1509,305656272.78989347
1534,0.0
2535,4773437.859083681
2688,22256541.899802798
2746,505304549.93530538
2834,0.0
2859,0.0
2872,0.0
2910,675539644.4611518
2923,0.0
2984,1251035.6779299295
2,1, 1, 1, 0,10, 0.00,60.00,Holiday
9,214699965.36332346
45,85725350.6868
682,105272514.0
1056,376144533.969502
1092,11540448.000000002
1165,16650548.85601331
1190,6061356.104042606
1372,72000.0
1509,144595205.73085729
1534,3018446.06779618
2535,4773437.836327098
2688,17120512.499757414
2746,286456264.325217
2834,0.0
2859,0.0
2872,0.0
2910,364532085.969502
2923,0.0
2984,520232.07272339149
2,1, 1, 1, 0,11, 0.00,60.00,Holiday
9,218403588.9462493
45,85725350.6868
682,105272514.0
1056,411566923.6571017
1092,11540448.000000002
1165,17184256.280801637
1190,6157445.672623907
1372,10385643.271337755
1509,139403175.2231277
1534,27817003.648488664
2535,4773437.842254182
2688,20704500.63855678
2746,287165193.25397649
2834,0.0
2859,0.0
2872,0.0
2910,389640832.38576397
2923,0.0
2984,543777.9482686216
2,1, 1, 1, 0,12, 0.00,60.00,Holiday
9,215094244.54856128
45,85725350.6868
682,105272514.0
1056,243408997.54292507
1092,11540448.000000002
1165,20737558.960020517
1190,8940910.516551579
1372,10385674.426216655
1509,76903530.91266959
1534,33398399.16352608
2535,4773438.018322081
2688,14922175.70142061
2746,182361581.46747703
2834,0.0
2859,0.0
2872,0.0
2910,221482875.11670844
2923,0.0
2984,233293.64378906578
2,1, 1, 1, 0,13, 0.00,60.00,Holiday
9,215729021.55245076
45,85725350.6868
682,105272514.0
1056,259338164.47854043
1092,11540448.000000002
1165,17742133.691820597
1190,6259922.323890806
1372,72000.0
1509,77933619.758573
1534,40684328.11830631
2535,4773438.004368394
2688,18241791.912644876
2746,199869105.84579645
2834,0.0
2859,0.0
2872,0.0
2910,247725716.47854043
2923,0.0
2984,229442.62911503615
2,1, 1, 1, 0,14, 0.00,60.00,Holiday
9,210420264.3280191
45,85725350.6868
682,105272514.0
1056,179402428.6395033
1092,11540448.000000002
1165,18815732.906592344
1190,6441039.03694717
1372,10385983.549716939
1509,40993617.35253733
1534,24282205.330693678
2535,4773437.878993817
2688,12867537.130766176
2746,129066177.5207352
2834,0.0
2859,0.0
2872,0.0
2910,157475997.08978639
2923,0.0
2984,113823.47350573275
2,1, 1, 1, 0,15, 0.00,60.00,Holiday
9,212855357.27902333
45,85725350.6868
682,105272514.0
1056,198703959.3626022
1092,11540448.000000002
1165,19190077.183183265
1190,6504191.430159499
1372,72000.0
1509,45571851.19390323
1534,26599141.81818045
2535,2864062.814623005
2688,15228322.009018373
2746,150543602.36324717
2834,0.0
2859,0.0
2872,0.0
2910,187091511.3626022
2923,0.0
2984,124979.15304545927
2,1, 1, 1, 0,16, 0.00,60.00,Holiday
9,211141019.25114063
45,85725350.6868
682,105272514.0
1056,192524238.92162634
1092,11540448.000000002
1165,18949195.425096904
1190,6464185.91515855
1372,10379147.500292279
1509,40704123.20853417
1534,16824488.044864544
2535,2864062.8057701026
2688,13552416.654317657
2746,137555726.93694953
2834,0.0
2859,0.0
2872,0.0
2910,170604643.4213341
2923,0.0
2984,126551.99486442979
2,1, 1, 1, 0,17, 0.00,60.00,Holiday
9,239847366.45012517
45,85725350.6868
682,105272514.0
1056,265038205.0118844
1092,11540448.000000002
1165,16843249.731842035
1190,6113203.774645366
1372,72000.0
1509,64907989.36791331
1534,12671164.110210568
2535,2864062.815920797
2688,17282960.579672807
2746,196514040.75224585
2834,25245600.0
2859,0.0
2872,0.0
2910,253425757.0118844
2923,0.0
2984,207737.40900698486
2,1, 1, 1, 0,18, 0.00,60.00,Holiday
9,249929336.00841449
45,85725350.6868
682,105272514.0
1056,254124678.20556838
1092,11540448.000000002
1165,16824927.560783574
1190,6110077.195110377
1372,10379493.287530166
1509,65715488.953997749
1534,10188672.830586382
2535,2864062.7832673068
2688,14750955.820532743
2746,177904240.90086145
2834,37868400.0
2859,0.0
2872,0.0
2910,232204736.91803823
2923,0.0
2984,202038.3059713327
2,1, 1, 1, 0,19, 0.00,60.00,Holiday
9,253950509.94371674
45,85725350.6868
682,105272514.0
1056,358250552.7705157
1092,11540448.000000002
1165,16784105.366519438
1190,6103111.108135617
1372,72000.0
1509,111286819.71640012
1534,12372205.381495312
2535,2864062.8162989735
2688,18652719.626775765
2746,256053439.93013666
2834,37868400.0
2859,0.0
2872,0.0
2910,346638104.7705157
2923,0.0
2984,328414.52200531525
2,1, 1, 1, 0,20, 0.00,60.00,Holiday
9,250925354.49936206
45,85725350.6868
682,105272514.0
1056,297596165.59719088
1092,11540448.000000002
1165,20033562.57511223
1190,6866956.759447521
1372,10379499.159684632
1509,91953541.00991798
1534,8690517.617398657
2535,2864062.8149295325
2688,14922175.70142061
2746,207295049.91438855
2834,37868400.0
2859,0.0
2872,0.0
2910,275676218.43750628
2923,0.0
2984,269957.35169389247
2,1, 1, 1, 0,21, 0.00,60.00,Holiday
9,254712777.4278581
45,85725350.6868
682,105272514.0
1056,380581056.5423209
1092,11540448.000000002
1165,19791585.712986866
1190,6812263.096184372
1372,72000.0
1509,129136482.99543199
1534,10155381.111394406
2535,2864062.8058663366
2688,18652719.626775765
2746,273224917.23502436
2834,37868400.0
2859,0.0
2872,0.0
2910,368968608.5423209
2923,0.0
2984,381530.0180979715
2,1, 1, 1, 0,22, 0.00,60.00,Holiday
9,253571602.6337266
45,85725350.6868
682,105272514.0
1056,459886775.7249223
1092,11540448.000000002
1165,17912242.802019594
1190,6383177.284096041
1372,10379459.346669263
1509,188839122.4276907
1534,5628108.446802464
2535,2864062.8154567715
2688,17706735.645980557
2746,303539555.44456908
2834,37868400.0
2859,0.0
2872,0.0
2910,437966868.37825307
2923,0.0
2984,615425.016850014
2,1, 1, 1, 0,23, 0.00,60.00,Holiday
9,257809528.37083689
45,85725350.6868
682,105272514.0
1056,578835092.6884019
1092,11540448.000000002
1165,15377077.839577582
1190,5799904.565724049
1372,72000.0
1509,262673961.7948415
1534,5801038.799783552
2535,2864062.8053865267
2688,22170058.504114648
2746,407522100.2537956
2834,37868400.0
2859,0.0
2872,0.0
2910,567222644.6884019
2923,0.0
2984,973300.6141982203
2,1, 1, 1, 0,24, 0.00,60.00,Holiday
9,256685098.78450794
45,85725350.6868
682,105272514.0
1056,438637662.3989984
1092,11540448.000000002
1165,18347427.660830764
1190,8454498.623981055
1372,72000.0
1509,207889580.1743425
1534,3632579.3443481849
2535,2864062.8161839039
2688,18643725.962440716
2746,329978596.898821
2834,37868400.0
2859,0.0
2872,0.0
2910,427025214.3989984
2923,0.0
2984,720609.5112861347
2,2, 1, 2, 0, 1, 0.00,60.00,Monday
9,259387973.43990667
45,85725350.6868
682,105272514.0
1056,664865906.9809203
1092,11540448.000000002
1165,14474382.683215494
1190,5644782.50120545
1372,10385971.452187062
1509,306893590.2260078
1534,4017249.877840877
2535,4782611.735019205
2688,23628400.73371465
2746,466771468.9357007
2834,37868400.0
2859,0.0
2872,0.0
2910,642939487.5287333
2923,0.0
2984,1248525.5181865222
2,2, 1, 2, 0, 2, 0.00,60.00,Monday
9,254632049.64874236
45,85725350.6868
682,105272514.0
1056,507714900.00806459
1092,11540448.000000002
1165,14147945.936431643
1190,5588844.734532576
1372,10385259.911124124
1509,245545835.77650444
1534,2611074.101872799
2535,4782611.716970894
2688,19258776.90722658
2746,377237406.52522477
2834,37868400.0
2859,0.0
2872,0.0
2910,485789192.09694048
2923,0.0
2984,918163.3201831505
2,2, 1, 2, 0, 3, 0.00,60.00,Monday
9,260019707.64162208
45,85725350.6868
682,105272514.0
1056,689385719.7093179
1092,11540448.000000002
1165,13913150.813000637
1190,5548439.513430655
1372,72000.0
1509,332740527.203713
1534,2861932.532166251
2535,4782611.746630849
2688,24190594.923590747
2746,496996378.1638615
2834,37868400.0
2859,0.0
2872,0.0
2910,677773271.7093179
2923,0.0
2984,1414408.517800646
2,2, 1, 2, 0, 4, 0.00,60.00,Monday
9,254403685.25724215
45,85725350.6868
682,105272514.0
1056,515685486.9820335
1092,11540448.000000002
1165,13739668.76119123
1190,5518676.574015734
1372,10385949.877621737
1509,254328443.01569916
1534,1796961.255468908
2535,4782611.7127394699
2688,19071378.843934549
2746,384673005.92043307
2834,37868400.0
2859,0.0
2872,0.0
2910,493759089.10441187
2923,0.0
2984,947365.1524918294
2,2, 1, 2, 0, 5, 0.00,60.00,Monday
9,260713715.32964457
45,85725350.6868
682,105272514.0
1056,676403398.5957184
1092,11540448.000000002
1165,17035836.418264364
1190,6290625.211417541
1372,10384868.582918136
1509,322810908.8247154
1534,2199229.665486312
2535,4782611.639067963
2688,24190594.923590743
2746,481031225.4505573
2834,37868400.0
2859,0.0
2872,0.0
2910,654478082.0128002
2923,0.0
2984,1366230.5078362716
2,2, 1, 2, 0, 6, 0.00,60.00,Monday
9,255203407.05423863
45,85725350.6868
682,105272514.0
1056,464152107.84546348
1092,11540448.000000002
1165,16850087.199240325
1190,6245570.900194622
1372,72000.0
1509,231326589.9885821
1534,1696923.613144197
2535,4782611.746862763
2688,19258776.90722658
2746,354563759.7300753
2834,37868400.0
2859,0.0
2872,0.0
2910,452539659.84546348
2923,0.0
2984,832794.5600173875
2,2, 1, 2, 0, 7, 0.00,60.00,Monday
9,278759581.3164483
45,85725350.6868
682,107346114.0
1056,2591452402.7392475
1092,11540448.000000002
1165,17249495.440565394
1190,6260913.60584747
1372,10385991.184971374
1509,1001766141.2480028
1534,16109748.480131653
2535,4782611.685113865
2688,29590908.098184989
2746,1855595400.5743933
2834,37868400.0
2859,139889.7435866563
2872,16236.107524030094
2910,2569525963.5542767
2923,0.0
2984,11951658.81809176
2,2, 1, 2, 0, 8, 0.00,60.00,Monday
9,596391510.8586373
45,435154064.4
682,107346114.0
1056,1890562031.938551
1092,11540448.000000002
1165,17782685.85376429
1190,6915506.9642710559
1372,10400767.046726605
1509,589857997.112849
1534,33522885.701201079
2535,9565216.691281869
2688,29590908.098184989
2746,1451910682.1932767
2834,12622800.0
2859,29564.86795831647
2872,3395.4918584638678
2910,1868620816.8918248
2923,0.0
2984,4758721.90432281
2,2, 1, 2, 0, 9, 0.00,60.00,Monday
9,744402757.2509617
45,435154064.4
682,270330255.0
1056,1443140718.0319637
1092,86553360.0
1165,18698758.98440018
1190,7072770.838533833
1372,41701017.50364135
1509,163458496.47829575
1534,44410386.313536617
2535,32521686.306697664
2688,29590908.098184989
2746,1007817333.8883677
2834,0.0
2859,210110.48890740396
2872,25540.31878852562
2910,1314886340.5283223
2923,0.0
2984,2229218.595454294
2,2, 1, 2, 0,10, 0.00,60.00,Monday
9,744112272.2782718
45,435154064.4
682,270330255.0
1056,1315815484.8549708
1092,86553360.0
1165,19449769.17527856
1190,7212349.987920558
1372,73520939.40387644
1509,84205288.06691218
1534,76317697.17882966
2535,57391339.19144402
2688,29590908.098184989
2746,874548607.5825574
2834,0.0
2859,91019.65317143132
2872,11441.745586499486
2910,1155741185.4510942
2923,0.0
2984,1813253.046579705
2,2, 1, 2, 0,11, 0.00,60.00,Monday
9,758264802.7128155
45,435154064.4
682,284728041.0
1056,1194970681.9130009
1092,115404480.0
1165,19684824.095699043
1190,7285844.83884613
1372,84100825.04898966
1509,52291647.7426299
1534,128373290.40876062
2535,60260901.87613145
2688,29590908.098184989
2746,754696297.2953079
2834,0.0
2859,111424.37109762457
2872,14485.80795860782
2910,995465376.8640112
2923,0.0
2984,1491458.5678258788
2,2, 1, 2, 0,12, 0.00,60.00,Monday
9,760827622.8257573
45,435154064.4
682,284728041.0
1056,1028023684.4042697
1092,115404480.0
1165,23183753.427514569
1190,10053581.884138294
1372,84335180.47021604
1509,15655606.649288314
1534,206520283.6644077
2535,68869558.94999115
2688,29590908.098184989
2746,622695133.4714613
2834,0.0
2859,0.0
2872,0.0
2910,828284023.9340537
2923,0.0
2984,1301027.4434338317
2,2, 1, 2, 0,13, 0.00,60.00,Monday
9,758062499.9973416
45,435154064.4
682,284728041.0
1056,993377959.6125617
1092,115404480.0
1165,19873705.589559925
1190,7337797.344183019
1372,95089111.34373304
1509,8284069.826459234
1534,236514432.79091556
2535,75565259.75202489
2688,29590908.098184989
2746,591301740.3303446
2834,0.0
2859,0.0
2872,0.0
2910,782884368.2688288
2923,0.0
2984,1251689.1549736777
2,2, 1, 2, 0,14, 0.00,60.00,Monday
9,743866284.8255637
45,435154064.4
682,270330255.0
1056,1043083118.4781427
1092,57702240.0
1165,20384382.17045935
1190,7385469.014448625
1372,95204025.75935139
1509,8147406.4637746079
1534,208866160.39571909
2535,79391054.64086595
2688,29590908.098184989
2746,667824075.9698379
2834,0.0
2859,0.0
2872,0.0
2910,890176852.7187915
2923,0.0
2984,1405588.3129300143
2,2, 1, 2, 0,15, 0.00,60.00,Monday
9,744039656.0646615
45,435154064.4
682,270330255.0
1056,1077120449.8528338
1092,57702240.0
1165,20425078.67938182
1190,7365831.511092266
1372,73538209.06910146
1509,9200677.005089917
1534,214056395.1042978
2535,58347856.89656467
2688,29590908.098184989
2746,713640768.8959857
2834,0.0
2859,0.0
2872,0.0
2910,945880000.7837322
2923,0.0
2984,1598597.0553842339
2,2, 1, 2, 0,16, 0.00,60.00,Monday
9,736675722.7878289
45,435154064.4
682,263131362.0
1056,1016304723.7559402
1092,11540448.000000002
1165,19905922.86601082
1190,7285189.0241683819
1372,84147779.42652616
1509,18296131.828895779
1534,216328881.21322838
2535,62173950.24790414
2688,29590908.098184989
2746,702655908.0305548
2834,0.0
2859,0.0
2872,0.0
2910,920616496.3294141
2923,0.0
2984,1514199.2654755628
2,2, 1, 2, 0,17, 0.00,60.00,Monday
9,761545119.011504
45,435154064.4
682,263131362.0
1056,981521278.8969753
1092,11540448.000000002
1165,17367651.685093367
1190,6874742.175213575
1372,10399902.0367734
1509,32700626.988162675
1534,163609144.49935545
2535,9565217.073628433
2688,29590908.098184989
2746,735051495.0111731
2834,25245600.0
2859,0.0
2872,0.0
2910,959580928.8602021
2923,0.0
2984,1548442.33810547
2,2, 1, 2, 0,18, 0.00,60.00,Monday
9,618724112.8378787
45,435154064.4
682,107346114.0
1056,1198752401.790337
1092,11540448.000000002
1165,17161519.309475084
1190,6821710.9827219969
1372,10401038.951299996
1509,68553040.58545715
1534,73099000.11691357
2535,9565217.34491796
2688,29590908.098184989
2746,889433141.2154436
2834,37868400.0
2859,0.0
2872,0.0
2910,1176810914.839037
2923,0.0
2984,1942915.3569716989
2,2, 1, 2, 0,19, 0.00,60.00,Monday
9,618731024.0703431
45,435154064.4
682,107346114.0
1056,1226489547.2131799
1092,11540448.000000002
1165,17141796.689534598
1190,6822030.130825024
1372,31145528.481031225
1509,83746966.72229098
1534,69635511.54683557
2535,18173876.685075616
2688,29590908.098184989
2746,898590559.4732299
2834,37868400.0
2859,0.0
2872,0.0
2910,1183803570.7321487
2923,0.0
2984,1949507.4413331412
2,2, 1, 2, 0,20, 0.00,60.00,Monday
9,619402236.0890415
45,435154064.4
682,107346114.0
1056,1187905444.4323474
1092,11540448.000000002
1165,20499351.43623986
1190,7629296.025353931
1372,31201602.26611621
1509,86261647.22361969
1534,68446009.5269206
2535,23912980.96107631
2688,29590908.098184989
2746,867141837.556541
2834,37868400.0
2859,0.0
2872,0.0
2910,1145163394.1662312
2923,0.0
2984,1813453.565502627
2,2, 1, 2, 0,21, 0.00,60.00,Monday
9,619281591.0724354
45,435154064.4
682,107346114.0
1056,1144794508.5086656
1092,11540448.000000002
1165,20312870.474332666
1190,7604248.063860066
1372,20806756.9453192
1509,85531339.66153875
1534,67783902.72009975
2535,21043427.91592164
2688,29590908.098184989
2746,842405500.7210925
2834,37868400.0
2859,0.0
2872,0.0
2910,1112447303.5633462
2923,0.0
2984,1717856.51039033
2,2, 1, 2, 0,22, 0.00,60.00,Monday
9,235332316.9334935
45,85725350.6868
682,105272514.0
1056,42719893.69068285
1092,11540448.000000002
1165,18012353.298979246
1190,6466052.11937524
1372,31179445.69068285
1509,0.0
1534,0.0
2535,21043423.777108708
2688,0.0
2746,0.0
2834,37868400.0
2859,0.0
2872,0.0
2910,0.0
2923,0.0
2984,0.12731821563360899
2,2, 1, 2, 0,23, 0.00,60.00,Monday
9,236418318.7934078
45,85725350.6868
682,105272514.0
1056,27925435.62641145
1092,11540448.000000002
1165,16268358.752992519
1190,5980454.531045234
1372,10407958.199490631
1509,4035895.9195199797
1534,10873143.973179592
2535,11478258.750408253
2688,1558647.24548407
2746,6913854.400914634
2834,37868400.0
2859,0.0
2872,0.0
2910,5977029.426920815
2923,0.0
2984,12952.330078453528
2,2, 1, 2, 0,24, 0.00,60.00,Monday
9,245495464.9160586
45,85725350.6868
682,105272514.0
1056,64209305.806584659
1092,11540448.000000002
1165,20040513.305583747
1190,8771005.030422492
1372,20723746.433584915
1509,20357800.060510529
1534,47463930.809460569
2535,8608698.639623993
2688,7793236.227420351
2746,34869869.11244007
2834,37868400.0
2859,0.0
2872,0.0
2910,31945111.37299975
2923,0.0
2984,64958.97141572907
2,3, 1, 3, 0, 1, 0.00,60.00,Tuesday
9,242272331.13513566
45,85725350.6868
682,105272514.0
1056,68540323.05913833
1092,11540448.000000002
1165,16555577.330464738
1190,5998105.0470748669
1372,72000.0
1509,25088430.705944484
1534,28573052.082028595
2535,4791611.489326719
2688,7320537.321871821
2746,52981087.88677206
2834,37868400.0
2859,0.0
2872,0.0
2910,56927875.05913832
2923,0.0
2984,87424.07938889515
2,3, 1, 3, 0, 2, 0.00,60.00,Tuesday
9,252592277.39822925
45,85725350.6868
682,105272514.0
1056,206591692.1990305
1092,11540448.000000002
1165,16537117.198885568
1190,5995390.963484439
1372,10386009.471168466
1509,41321585.92187278
1534,27465117.64614396
2535,4791611.326855017
2688,17566771.286840224
2746,157509158.85678143
2834,37868400.0
2859,0.0
2872,0.0
2910,184665234.72786198
2923,0.0
2984,163850.46110458009
2,3, 1, 3, 0, 3, 0.00,60.00,Tuesday
9,249599850.79160819
45,85725350.6868
682,105272514.0
1056,215689123.18016459
1092,11540448.000000002
1165,16464251.059190467
1190,5995825.935224172
1372,10386067.333420882
1509,52717622.656970079
1534,15861185.444207408
2535,4791611.564686969
2688,14550421.41234071
2746,153957834.27875877
2834,37868400.0
2859,0.0
2872,0.0
2910,193762607.8467437
2923,0.0
2984,187338.75724331919
2,3, 1, 3, 0, 4, 0.00,60.00,Tuesday
9,253762894.18579979
45,85725350.6868
682,105272514.0
1056,288339109.9086067
1092,11540448.000000002
1165,16387951.630578872
1190,5979404.988444573
1372,72000.0
1509,81809405.05999328
1534,17053952.653754068
2535,4791611.160807518
2688,18652719.626775765
2746,215241440.18035398
2834,37868400.0
2859,0.0
2872,0.0
2910,276726661.9086067
2923,0.0
2984,264504.8837794312
2,3, 1, 3, 0, 5, 0.00,60.00,Tuesday
9,253900910.7829642
45,85725350.6868
682,105272514.0
1056,321437941.8129147
1092,11540448.000000002
1165,32659351.270137259
1190,9788215.587380853
1372,10385398.977063265
1509,102616649.31244239
1534,13176514.582819552
2535,4791611.433621177
2688,14922175.70142061
2746,213097574.26920326
2834,37868400.0
2859,0.0
2872,0.0
2910,299512094.83585146
2923,0.0
2984,324254.8073627354
2,3, 1, 3, 0, 6, 0.00,60.00,Tuesday
9,257108857.4811067
45,85725350.6868
682,105272514.0
1056,412072533.6408217
1092,11540448.000000002
1165,29873994.826388129
1190,9143726.35010071
1372,10385456.805207225
1509,148673294.33838196
1534,15759153.772545837
2535,4791611.544116435
2688,18652719.626775765
2746,291804703.2171762
2834,37868400.0
2859,0.0
2872,0.0
2910,390146628.83561459
2923,0.0
2984,446146.8174302286
2,3, 1, 3, 0, 7, 0.00,60.00,Tuesday
9,279552683.6561211
45,85725350.6868
682,107346114.0
1056,2639824442.6047637
1092,11540448.000000002
1165,23178084.536783548
1190,7607404.206923155
1372,72000.0
1509,933821072.9617217
1534,33319008.65769636
2535,4791611.565897582
2688,29590908.098184989
2746,1878727593.5666357
2834,37868400.0
2859,184556.94132939424
2872,21952.29793871753
2910,2628211994.6047637
2923,0.0
2984,11392554.366274205
2,3, 1, 3, 0, 8, 0.00,60.00,Tuesday
9,595831628.2095499
45,435154064.4
682,107346114.0
1056,1879906338.379892
1092,11540448.000000002
1165,17874258.537274254
1190,6931055.540194698
1372,10401853.18247493
1509,460672884.80969217
1534,42233345.89119239
2535,9583217.943598399
2688,29590908.098184989
2746,1437419839.7179919
2834,12622800.0
2859,48101.76232789943
2872,5092.390178069978
2910,1857964037.1974173
2923,0.0
2984,4181593.7809920485
2,3, 1, 3, 0, 9, 0.00,60.00,Tuesday
9,744967652.8111234
45,435154064.4
682,270330255.0
1056,1582181716.3615423
1092,86553360.0
1165,18700392.68813507
1190,7072878.766644521
1372,41705212.2970278
1509,101843406.36152365
1534,61895714.142067808
2535,32582865.42132029
2688,29590908.098184989
2746,1095177028.5192862
2834,0.0
2859,138106.126142102
2872,15152.464565610971
2910,1453923144.0645142
2923,0.0
2984,2804394.0817283
2,3, 1, 3, 0,10, 0.00,60.00,Tuesday
9,744981270.9750925
45,435154064.4
682,270330255.0
1056,1540862539.537251
1092,86553360.0
1165,19298437.25691207
1190,7173535.418682804
1372,73521723.20837851
1509,70929809.66989392
1534,108142743.40814379
2535,57499337.42285038
2688,29590908.098184989
2746,1041580458.1820573
2834,0.0
2859,82077.55854111862
2872,8922.397164359916
2910,1380787456.3288727
2923,0.0
2984,2723585.661060512
2,3, 1, 3, 0,11, 0.00,60.00,Tuesday
9,759226332.9113638
45,435154064.4
682,284728041.0
1056,1480737461.8048895
1092,115404480.0
1165,19471876.28688424
1190,7204364.696866086
1372,84099208.2074363
1509,47333477.51650752
1534,147300934.8390297
2535,60374269.135983128
2688,29590908.098184989
2746,968689057.4909968
2834,0.0
2859,105769.84825022312
2872,11787.53844860755
2910,1281233773.597453
2923,0.0
2984,2537167.177864163
2,3, 1, 3, 0,12, 0.00,60.00,Tuesday
9,761773523.1537871
45,435154064.4
682,284728041.0
1056,1327609811.7680922
1092,115404480.0
1165,22885417.27682764
1190,9967331.505658977
1372,84337986.7780236
1509,17671563.461408538
1534,211577655.0260499
2535,68999153.41611146
2688,29590908.098184989
2746,852492928.1693446
2834,0.0
2859,0.0
2872,0.0
2910,1127867344.9900685
2923,0.0
2984,2333178.1499430339
2,3, 1, 3, 0,13, 0.00,60.00,Tuesday
9,758886031.6085019
45,435154064.4
682,284728041.0
1056,1270875583.1170905
1092,115404480.0
1165,19647388.389251308
1190,7237594.800242445
1372,95084929.86209306
1509,9827452.463646662
1534,233349058.83554057
2535,75707063.27845353
2688,29590908.098184989
2746,803067418.6833716
2834,0.0
2859,0.0
2872,0.0
2910,1060386173.2549975
2923,0.0
2984,2175423.3100744907
2,3, 1, 3, 0,14, 0.00,60.00,Tuesday
9,744499643.4185624
45,435154064.4
682,270330255.0
1056,1254392842.42593
1092,57702240.0
1165,20107833.373611586
1190,7312066.347011436
1372,105778699.46225143
1509,9980522.880609859
1534,204873024.00713576
2535,79540479.71931997
2688,29590908.098184989
2746,826527580.792413
2834,0.0
2859,0.0
2872,0.0
2910,1090911902.9636787
2923,0.0
2984,2112349.5733659688
2,3, 1, 3, 0,15, 0.00,60.00,Tuesday
9,744483869.68572
45,435154064.4
682,270330255.0
1056,1218335964.2212709
1092,57702240.0
1165,20070203.194986818
1190,7303960.176367363
1372,73542798.88464368
1509,10792948.113072247
1534,211345553.47544933
2535,58457659.346773128
2688,29590908.098184989
2746,823778785.8907796
2834,0.0
2859,0.0
2872,0.0
2910,1087090925.336627
2923,0.0
2984,2104682.0111676675
2,3, 1, 3, 0,16, 0.00,60.00,Tuesday
9,737191799.3172469
45,435154064.4
682,263131362.0
1056,1184056110.269553
1092,11540448.000000002
1165,19516295.67881058
1190,7210091.61121387
1372,73631830.99169649
1509,20300393.27774473
1534,212397584.80661089
2535,62290948.22088069
2688,29590908.098184989
2746,833217734.6926591
2834,0.0
2859,0.0
2872,0.0
2910,1098883831.2778564
2923,0.0
2984,2105373.2078480587
2,3, 1, 3, 0,17, 0.00,60.00,Tuesday
9,762168474.5624318
45,435154064.4
682,263131362.0
1056,1213109927.790249
1092,11540448.000000002
1165,16906912.955490479
1190,6772968.678215042
1372,10401867.817003014
1509,40678284.60337806
1534,145557615.35939173
2535,9583215.959170882
2688,29590908.098184989
2746,909037414.7458081
2834,25245600.0
2859,0.0
2872,0.0
2910,1191167611.973246
2923,0.0
2984,2273571.386031883
2,3, 1, 3, 0,18, 0.00,60.00,Tuesday
9,619249151.0884804
45,435154064.4
682,107346114.0
1056,1392184152.7183183
1092,11540448.000000002
1165,16694769.469578218
1190,6736830.3504386129
1372,20730816.644045868
1509,93672636.58138429
1534,72977140.40120657
2535,9583217.38641381
2688,29590908.098184989
2746,1031858021.5621917
2834,37868400.0
2859,0.0
2872,0.0
2910,1359912888.0742722
2923,0.0
2984,2552834.2398567639
2,3, 1, 3, 0,19, 0.00,60.00,Tuesday
9,619314764.6321539
45,435154064.4
682,107346114.0
1056,1434511654.4622865
1092,11540448.000000002
1165,16662107.759376688
1190,6731260.552808604
1372,20787716.41596186
1509,119638945.84833972
1534,70915193.25841783
2535,18208050.18820772
2688,29590908.098184989
2746,1058767610.4840555
2834,37868400.0
2859,0.0
2872,0.0
2910,1402183490.0463246
2923,0.0
2984,2624017.581160401
2,3, 1, 3, 0,20, 0.00,60.00,Tuesday
9,619362100.4959362
45,435154064.4
682,107346114.0
1056,1467367050.5489202
1092,11540448.000000002
1165,16674732.196191259
1190,6733511.893896789
1372,31207595.091164598
1509,135473170.95182238
1534,69748127.74450255
2535,23958053.7979526
2688,29590908.098184989
2746,1075240921.8380447
2834,37868400.0
2859,0.0
2872,0.0
2910,1424619007.4577559
2923,0.0
2984,2669102.103854356
2,3, 1, 3, 0,21, 0.00,60.00,Tuesday
9,619394037.8043916
45,435154064.4
682,107346114.0
1056,1482115673.7887023
1092,11540448.000000002
1165,16680371.65183755
1190,6734649.405474795
1372,31173662.357635809
1509,145837229.84928305
1534,68820870.26549205
2535,21083051.30596039
2688,29590908.098184989
2746,1086190418.969306
2834,37868400.0
2859,0.0
2872,0.0
2910,1439401563.4310666
2923,0.0
2984,2699901.900731909
2,3, 1, 3, 0,22, 0.00,60.00,Tuesday
9,236195784.6963203
45,85725350.6868
682,105272514.0
1056,38020521.243647258
1092,11540448.000000002
1165,15154100.339853442
1190,5756086.051693151
1372,20808878.416795836
1509,4791356.732595155
1534,10957528.223992264
2535,21083082.441738056
2688,1558647.24548407
2746,7663103.098594144