Program Version,EnergyPlus, Version 9.2.0-921312fa1d, YMD=2020.12.22 18:18
1,5,Environment Title[],Latitude[deg],Longitude[deg],Time Zone[],Elevation[m]
2,8,Day of Simulation[],Month[],Day of Month[],DST Indicator[1=yes 0=no],Hour[],StartMinute[],EndMinute[],DayType
3,5,Cumulative Day of Simulation[],Month[],Day of Month[],DST Indicator[1=yes 0=no],DayType  ! When Daily Meters Requested
4,2,Cumulative Days of Simulation[],Month[]  ! When Monthly Meters Requested
5,1,Cumulative Days of Simulation[] ! When Run Period Meters Requested
6,1,Calendar Year of Simulation[] ! When Annual Meters Requested
9,1,Electricity:Facility [J] !Hourly
1488,1,Heating:Electricity [J] !Hourly
1427,1,Cooling:Electricity [J] !Hourly
45,1,InteriorLights:Electricity [J] !Hourly
1377,1,ExteriorLights:Electricity [J] !Hourly
207,1,InteriorEquipment:Electricity [J] !Hourly
1332,1,Fans:Electricity [J] !Hourly
1522,1,Pumps:Electricity [J] !Hourly
481,1,Refrigeration:Electricity [J] !Hourly
322,1,Gas:Facility [J] !Hourly
1475,1,Heating:Gas [J] !Hourly
358,1,InteriorEquipment:Gas [J] !Hourly
812,1,WaterSystems:Gas [J] !Hourly
937,1,Heating:EnergyTransfer [J] !Hourly
962,1,Cooling:EnergyTransfer [J] !Hourly
1179,1,WaterSystems:EnergyTransfer [J] !Hourly
456,1,Refrigeration:EnergyTransfer [J] !Hourly
1450,1,HeatingCoils:EnergyTransfer [J] !Hourly
1414,1,CoolingCoils:EnergyTransfer [J] !Hourly
End of Data Dictionary
1,RUNPERIOD 1,  41.98, -87.92,  -6.00, 201.00
2,1, 1, 1, 0, 1, 0.00,60.00,Holiday
9,435537438.5215808
45,20374527.54585125
207,24526752.225707845
322,683167309.8318827
358,6304500.0
456,428899170.1242925
481,184646365.80474455
812,72000.0
937,507046461.5902869
962,0.0
1179,449600.52207949719
1332,146942592.94500698
1377,59047200.0
1414,0.0
1427,0.0
1450,527896831.6688685
1475,676790809.8318827
1488,0.0
1522,0.00027024267105270154
2,1, 1, 1, 0, 2, 0.00,60.00,Holiday
9,441392180.9064538
45,20374527.54585125
207,24526752.225707845
322,957154688.5981153
358,6304500.0
456,419481877.54722979
481,183144312.88578577
812,72000.0
937,706948085.2042453
962,0.0
1179,449600.54365079288
1332,154299388.24883724
1377,59047200.0
1414,0.0
1427,0.0
1450,741606987.10653
1475,950778188.5981153
1488,0.0
1522,0.000271769400566672
2,1, 1, 1, 0, 3, 0.00,60.00,Holiday
9,389556975.50509956
45,20374527.54585125
207,24526752.225707845
322,697382489.3702713
358,6304500.0
456,417169370.62214806
481,182742236.90070758
812,4191694.707833161
937,505158640.363595
962,0.0
1179,449600.5438215278
1332,102866258.83255816
1377,59047200.0
1414,0.0
1427,0.0
1450,535771309.83670189
1475,686886294.6624382
1488,0.0
1522,0.00027478661648302094
2,1, 1, 1, 0, 4, 0.00,60.00,Holiday
9,438377383.42515888
45,20374527.54585125
207,24526752.225707845
322,1135191385.5723124
358,6304500.0
456,399773429.13418295
481,180129515.40453104
812,72000.0
937,826470030.717649
962,0.0
1179,385371.88968435607
1332,154299388.24883724
1377,59047200.0
1414,0.0
1427,0.0
1450,880475610.7464037
1475,1128814885.5723124
1488,0.0
1522,0.0002315190679970075
2,1, 1, 1, 0, 5, 0.00,60.00,Holiday
9,464344160.52756437
45,20374527.54585125
207,24526752.225707845
322,1017965405.1034305
358,6304500.0
456,552052257.952724
481,206096292.50693474
812,72000.0
937,760266677.146256
962,0.0
1179,385371.8948312562
1332,154299388.24883724
1377,59047200.0
1414,0.0
1427,0.0
1450,789039345.9806757
1475,1011588905.1034305
1488,0.0
1522,0.00023336338724892961
2,1, 1, 1, 0, 6, 0.00,60.00,Holiday
9,411354835.5864011
45,20374527.54585125
207,24526752.225707845
322,738204246.996862
358,6304500.0
456,543015599.0310826
481,204540096.9820486
812,4191424.0704117489
937,537376870.2533739
962,0.0
1179,385371.8955726399
1332,102866258.83255816
1377,59047200.0
1414,0.0
1427,0.0
1450,567612491.8826313
1475,727708322.9264503
1488,0.0
1522,0.0002353132321784701
2,1, 1, 1, 0, 7, 0.00,60.00,Holiday
9,570439861.0576565
45,40749055.0917025
207,50939904.45141569
322,3306098395.454757
358,12609000.0
456,585247826.048836
481,213971183.84915183
812,72000.0
937,1919188887.3107315
962,0.0
1179,449600.53872190779
1332,205732517.6651163
1377,59047200.0
1414,0.0
1427,0.0
1450,2568865568.454711
1475,3293417395.454757
1488,0.0
1522,0.00027022993191910816
2,1, 1, 1, 0, 8, 0.00,60.00,Holiday
9,560568993.7630056
45,40749055.0917025
207,50939904.45141569
322,2884068045.7424838
358,12609000.0
456,774326077.2569063
481,248385716.55438058
812,72000.0
937,1677999765.9201933
962,0.0
1179,642286.4818107253
1332,205732517.6651163
1377,14761800.0
1414,0.0
1427,0.0
1450,2239681895.6791379
1475,2871387045.7424838
1488,0.0
1522,0.00039058593984845225
2,1, 1, 1, 0, 9, 0.00,60.00,Holiday
9,673832862.2934749
45,40749055.0917025
207,50939904.45141569
322,2103075122.3295966
358,12609000.0
456,869864585.4416045
481,376411385.0847743
812,4191799.2537319737
937,1088087737.0191973
962,0.0
1179,770742.738056934
1332,205732517.6651163
1377,0.0
1414,0.0
1427,0.0
1450,1627293971.9991747
1475,2086274323.0758649
1488,0.0
1522,0.00046591249499520354
2,1, 1, 1, 0,10, 0.00,60.00,Holiday
9,574884786.9429314
45,40749055.0917025
207,50939904.45141569
322,1936620334.3330386
358,12609000.0
456,882148174.1622506
481,277463309.7341515
812,72000.0
937,1005332374.2954674
962,0.0
1179,899201.064972509
1332,205732517.6651163
1377,0.0
1414,0.0
1427,0.0
1450,1500672680.7797704
1475,1923939334.3330386
1488,0.0
1522,0.000545389063944211
2,1, 1, 1, 0,11, 0.00,60.00,Holiday
9,746444775.4553536
45,162996220.36681
207,99993408.90283138
322,1689611710.6595546
358,25218000.0
456,816758310.9471015
481,277722628.5194697
812,4193146.5571161767
937,845726956.9857516
962,0.0
1179,1862619.7186782896
1332,205732517.6651163
1377,0.0
1414,0.0
1427,0.0
1450,1294956439.9999018
1475,1660200564.1024385
1488,0.0
1522,0.0011261592807712386
2,1, 1, 1, 0,12, 0.00,60.00,Holiday
9,859792799.9968271
45,162996220.36681
207,99993408.90283138
322,1539952714.0640417
358,25218000.0
456,827737244.8309563
481,391070653.06086328
812,4193314.03567331
937,770445548.452131
962,0.0
1179,1991075.5898720343
1332,205732517.6651163
1377,0.0
1414,0.0
1427,0.0
1450,1178222292.0221275
1475,1510541400.0283685
1488,0.0
1522,0.0012061813739212698
2,1, 1, 1, 0,13, 0.00,60.00,Holiday
9,917072253.9377675
45,244494330.55021499
207,132695745.20377517
322,1373711572.5048295
358,33624000.00000001
456,1019228468.8013803
481,334149660.5172597
812,4194012.3082538896
937,666848403.3591552
962,273155.11704024978
1179,2312224.60639006
1332,205732517.6651163
1377,0.0
1414,0.0
1427,0.0
1450,1041996976.953329
1475,1335893560.1965757
1488,0.0
1522,0.0014012543219194616
2,1, 1, 1, 0,14, 0.00,60.00,Holiday
9,907191333.7052784
45,244494330.55021499
207,132695745.20377517
322,1282066742.4664806
358,33624000.00000001
456,966133856.0518444
481,324268740.2847703
812,4193787.207500619
937,627045917.697807
962,5035195.115089537
1179,2312216.586560659
1332,205732517.6651163
1377,0.0
1414,0.0
1427,0.0
1450,970514185.1020044
1475,1244248955.25898
1488,0.0
1522,0.0014015319231520979
2,1, 1, 1, 0,15, 0.00,60.00,Holiday
9,893670835.3357704
45,244494330.55021499
207,132695745.20377517
322,1237596073.2059227
358,33624000.00000001
456,910459135.5191004
481,310748241.91533908
812,4194015.0658533328
937,606323893.7399519
962,8957339.021332639
1179,2183758.746036471
1332,205732517.6651163
1377,0.0
1414,0.0
1427,0.0
1450,935826885.349254
1475,1199778058.1400693
1488,0.0
1522,0.001324639444717938
2,1, 1, 1, 0,16, 0.00,60.00,Holiday
9,881569351.9716168
45,244494330.55021499
207,132695745.20377517
322,1225933985.0769783
358,33624000.00000001
456,851965721.1904403
481,298646758.5511476
812,4193800.7293074887
937,599293777.8702499
962,11175511.703879286
1179,2248001.3872871308
1332,205732517.6651163
1377,0.0
1414,0.0
1427,0.0
1450,926730623.7911832
1475,1188116184.3476709
1488,0.0
1522,0.0013625735181659214
2,1, 1, 1, 0,17, 0.00,60.00,Holiday
9,926067280.2854403
45,244494330.55021499
207,132695745.20377517
322,1219087549.6313065
358,33624000.00000001
456,853042590.5359523
481,298859286.8648934
812,4193778.8449856347
937,595509440.2925317
962,12786777.240098592
1179,2376447.4904769437
1332,205732517.6651163
1377,44285400.0
1414,0.0
1427,0.0
1450,921390421.2133303
1475,1181269770.786321
1488,0.0
1522,0.001440330318381227
2,1, 1, 1, 0,18, 0.00,60.00,Holiday
9,807307512.8308072
45,162996220.36681
207,99993408.90283138
322,1736415701.2190335
358,25218000.0
456,825957979.6353893
481,279538165.8947264
812,72000.0
937,986808687.5176296
962,0.0
1179,2183758.861854029
1332,205732517.6651163
1377,59047200.0
1414,0.0
1427,0.0
1450,1334678046.9508463
1475,1711125701.2190335
1488,0.0
1522,0.0013230436916999028
2,1, 1, 1, 0,19, 0.00,60.00,Holiday
9,799105695.9630995
45,81498110.183405
207,67291072.60188759
322,1857354362.9987803
358,16812000.000000005
456,884111388.3317221
481,385536795.5117216
812,4193128.7301670459
937,1071260169.8650385
962,0.0
1179,1605712.5727269657
1332,205732517.6651163
1377,59047200.0
1414,0.0
1427,0.0
1450,1432352402.7295182
1475,1836349234.2686134
1488,0.0
1522,0.0009687104590130034
2,1, 1, 1, 0,20, 0.00,60.00,Holiday
9,727661036.2940674
45,81498110.183405
207,67291072.60188759
322,1842691348.2457395
358,16812000.000000005
456,1047447377.4620774
481,314092135.84260758
812,4192992.4849337406
937,1072019246.1422186
962,0.0
1179,1734163.880163215
1332,205732517.6651163
1377,59047200.0
1414,0.0
1427,0.0
1450,1420915357.4934285
1475,1821686355.7608057
1488,0.0
1522,0.001050727900473191
2,1, 1, 1, 0,21, 0.00,60.00,Holiday
9,695964730.0876258
45,81498110.183405
207,67291072.60188759
322,1849279956.4063149
358,16812000.000000005
456,927130612.8978345
481,282395829.6363958
812,4192595.87166071
937,1077967812.592536
962,0.0
1179,1348801.5684369023
1332,205732517.6651163
1377,59047200.0
1414,0.0
1427,0.0
1450,1426054781.2170306
1475,1828275360.5346542
1488,0.0
1522,0.0008209353450314898
2,1, 1, 1, 0,22, 0.00,60.00,Holiday
9,644457593.0651428
45,81498110.183405
207,67291072.60188759
322,1682091731.7043899
358,16812000.000000005
456,646253554.9566307
481,230888692.61411504
812,72000.0
937,954433663.0858383
962,0.0
1179,1027656.285286786
1332,205732517.6651163
1377,59047200.0
1414,0.0
1427,0.0
1450,1298862030.729424
1475,1665207731.7043899
1488,0.0
1522,0.0006186760054933379
2,1, 1, 1, 0,23, 0.00,60.00,Holiday
9,359937041.1779638
45,20374527.54585125
207,24526752.225707845
322,89060930.80715801
358,6304500.0
456,467497491.4795682
481,190425770.8368974
812,4191972.20949247
937,87295614.05933097
962,0.0
1179,642286.4898604089
1332,65562790.56911488
1377,59047200.0
1414,0.0
1427,0.0
1450,61280277.70617912
1475,78564458.59766552
1488,0.0
1522,0.0003923973865684859
2,1, 1, 1, 0,24, 0.00,60.00,Holiday
9,575567348.7180773
45,20374527.54585125
207,24526752.225707845
322,364369809.2581339
358,6304500.0
456,552887653.5543196
481,320204941.0970057
812,72000.0
937,310312573.21268627
962,0.0
1179,385371.8924929971
1332,151413927.84928046
1377,59047200.0
1414,0.0
1427,0.0
1450,279234781.22134438
1475,357993309.2581339
1488,0.0
1522,0.00023213043986499305
2,2, 1, 2, 0, 1, 0.00,60.00,Monday
9,471152506.18865087
45,20374527.54585125
207,32702336.300943793
322,470608569.74185207
358,8406000.000000002
456,517991699.1798891
481,207101860.12304188
812,72000.0
937,402322789.078363
962,0.0
1179,257383.32776436702
1332,151926582.21865899
1377,59047200.0
1414,0.0
1427,0.0
1450,360461844.3986447
1475,462130569.7418521
1488,0.0
1522,0.0001550164427084345
2,2, 1, 2, 0, 2, 0.00,60.00,Monday
9,404949455.8599743
45,20374527.54585125
207,32702336.300943793
322,412467990.0432737
358,8406000.000000002
456,433088766.17175737
481,185277958.83060143
812,72000.0
937,325389362.3166763
962,0.0
1179,321729.1596956729
1332,107547433.18238181
1377,59047200.0
1414,0.0
1427,0.0
1450,315112192.23375347
1475,403989990.0432737
1488,0.0
1522,0.0001960293338425153
2,2, 1, 2, 0, 3, 0.00,60.00,Monday
9,447962948.95602986
45,20374527.54585125
207,32702336.300943793
322,624972738.5621944
358,8406000.000000002
456,423539113.7986041
481,183847865.17984889
812,4191519.1478364148
937,511023811.49545559
962,0.0
1179,321729.15967840046
1332,151991019.9291918
1377,59047200.0
1414,0.0
1427,0.0
1450,477652671.1431992
1475,612375219.4143579
1488,0.0
1522,0.00019414045025445607
2,2, 1, 2, 0, 4, 0.00,60.00,Monday
9,449033745.88190028
45,20374527.54585125
207,32702336.300943793
322,570704658.0591095
358,8406000.000000002
456,431174831.6647798
481,184983099.81629149
812,71999.99999999999
937,481059513.46366277
962,0.0
1179,257383.32776782578
1332,151926582.21865896
1377,59047200.0
1414,0.0
1427,0.0
1450,438536793.2861053
1475,562226658.0591095
1488,0.0
1522,0.00015480829759307089
2,2, 1, 2, 0, 5, 0.00,60.00,Monday
9,428482743.25231119
45,20374527.54585125
207,32702336.300943793
322,424150610.2988389
358,8406000.000000002
456,569024724.4136574
481,208811246.222978
812,72000.0
937,342365425.0820049
962,0.0
1179,257383.3277656446
1332,107547433.18238181
1377,59047200.0
1414,0.0
1427,0.0
1450,324224636.0330943
1475,415672610.2988389
1488,0.0
1522,0.00015637686949940234
2,2, 1, 2, 0, 6, 0.00,60.00,Monday
9,470392899.8363912
45,20374527.54585125
207,32702336.300943793
322,597434745.4153375
358,8406000.000000002
456,553404593.8917135
481,206277816.06024815
812,4191438.3235592094
937,500214058.4918339
962,0.0
1179,257383.3277508412
1332,151991019.9291918
1377,59047200.0
1414,0.0
1427,0.0
1450,456173099.531587
1475,584837307.0917783
1488,0.0
1522,0.00015622472659050096
2,2, 1, 2, 0, 7, 0.00,60.00,Monday
9,641205993.4106636
45,81498110.183405
207,67291072.60188759
322,1842240263.1934634
358,16812000.000000005
456,624525292.7627326
481,227637092.9601001
812,72000.0
937,1070505560.6689394
962,0.0
1179,257383.32760740439
1332,205732517.6651163
1377,59047200.0
1414,0.0
1427,0.0
1450,1423777885.2909017
1475,1825356263.1934634
1488,0.0
1522,0.00015461657298582117
2,2, 1, 2, 0, 8, 0.00,60.00,Monday
9,629450254.7015736
45,81498110.183405
207,67291072.60188759
322,1627359705.479634
358,16812000.000000005
456,798617014.9898638
481,260166754.25057704
812,4192107.7140984206
937,926476561.9377921
962,0.0
1179,965187.4503536773
1332,205732517.6651163
1377,14761800.0
1414,0.0
1427,0.0
1450,1252957366.2571178
1475,1606355597.7655357
1488,0.0
1522,0.0005876195747670015
2,2, 1, 2, 0, 9, 0.00,60.00,Monday
9,935345607.3779323
45,203745275.45851249
207,116344577.05330327
322,1429231016.8335913
358,29420999.999999998
456,906556477.9387875
481,409523237.20010909
812,72000.0
937,774462105.6089633
962,0.0
1179,1479947.2340406173
1332,205732517.6651163
1377,0.0
1414,0.0
1427,0.0
1450,1091795653.1302014
1475,1399738016.8335915
1488,0.0
1522,0.0008910926141396678
2,2, 1, 2, 0,10, 0.00,60.00,Monday
9,1085464337.1862298
45,366741495.8253225
207,149046913.35424707
322,1218278200.0963569
358,37827000.0
456,1026578826.6712561
481,363943410.34029898
812,4193636.4473079817
937,628359936.1457518
962,13497924.369617979
1179,2059059.3252981059
1332,205732517.6651163
1377,0.0
1414,0.0
1427,0.0
1450,917480899.6462582
1475,1176257563.649049
1488,0.0
1522,0.001244873238215109
2,2, 1, 2, 0,11, 0.00,60.00,Monday
9,1051180284.0085721
45,366741495.8253225
207,149046913.35424707
322,1104960065.149329
358,37827000.0
456,896838255.6291844
481,329659357.1622903
812,4194089.7947094908
937,571190758.7240826
962,22246826.190115729
1179,2638155.2451334067
1332,205732517.6651163
1377,0.0
1414,0.0
1427,0.0
1450,829092400.7766031
1475,1062938975.3546194
1488,0.0
1522,0.0015959262380801385
2,2, 1, 2, 0,12, 0.00,60.00,Monday
9,1161385324.1445225
45,366741495.8253225
207,149046913.35424707
322,1020869281.7933211
358,37827000.0
456,890595229.5773115
481,439864397.2976132
812,4195796.424995485
937,522391389.1350135
962,28929243.146023703
1179,3667711.4702616308
1332,205732517.6651163
1377,0.0
1414,0.0
1427,0.0
1450,763500258.5872939
1475,978846485.3683257
1488,0.0
1522,0.00222334480506703
2,2, 1, 2, 0,13, 0.00,60.00,Monday
9,1089096398.8696304
45,366741495.8253225
207,149046913.35424707
322,989413466.130433
358,37827000.0
456,1073927811.4593247
481,367575472.02253499
812,8319609.977639155
937,498402185.57356157
962,32697431.79600066
1179,3989344.444777952
1332,205732517.6651163
1377,0.0
1414,0.0
1427,0.0
1450,735748147.7991792
1475,943266856.1527938
1488,0.0
1522,0.0024096010156327799
2,2, 1, 2, 0,14, 0.00,60.00,Monday
9,1079153996.7502008
45,366741495.8253225
207,149046913.35424707
322,1014391197.8297007
358,37827000.0
456,1018653852.9519096
481,357633069.90314009
812,4195505.315926906
937,495217466.9624262
962,33633409.80793645
1179,3925030.9881333329
1332,205732517.6651163
1377,0.0
1414,0.0
1427,0.0
1450,758447580.1607437
1475,972368692.5137737
1488,0.0
1522,0.0023748692707230764
2,2, 1, 2, 0,15, 0.00,60.00,Monday
9,1071085539.1634545
45,366741495.8253225
207,149046913.35424707
322,1043691073.5411301
358,37827000.0
456,971323804.302297
481,349564612.3168182
812,4194744.87288655
937,493560394.39370205
962,34199921.958882648
1179,3217253.092576402
1332,205732517.6651163
1377,0.0
1414,0.0
1427,0.0
1450,781302076.36123
1475,1001669328.6682435
1488,0.0
1522,0.0019503345328836602
2,2, 1, 2, 0,16, 0.00,60.00,Monday
9,1062256326.1774246
45,366741495.8253225
207,149046913.35424707
322,995340012.887412
358,37827000.0
456,917598953.5365396
481,340735399.33098837
812,8317337.72319922
937,469542581.9382733
962,38262190.46789358
1179,2895542.6913887795
1332,205732517.6651163
1377,0.0
1414,0.0
1427,0.0
1450,740372626.628086
1475,949195675.1642127
1488,0.0
1522,0.001750245478955284
2,2, 1, 2, 0,17, 0.00,60.00,Monday
9,1108773453.737038
45,366741495.8253225
207,149046913.35424707
322,969473726.1447692
358,37827000.0
456,921047645.9956875
481,342967126.89056339
812,4194856.347355553
937,464612587.2325757
962,39586308.80527774
1179,2959878.564770656
1332,205732517.6651163
1377,44285400.0
1414,0.0
1427,0.0
1450,723412458.4419826
1475,927451869.7974137
1488,0.0
1522,0.001788693529655732
2,2, 1, 2, 0,18, 0.00,60.00,Monday
9,1123869603.6596413
45,366741495.8253225
207,149046913.35424707
322,1021979220.9784459
358,37827000.0
456,922583327.997504
481,343301476.81312778
812,4194488.603005944
937,485523801.6621656
962,37589444.921701978
1179,3024212.246371654
1332,205732517.6651163
1377,59047200.0
1414,0.0
1427,0.0
1450,764367031.2528432
1475,979957732.37544
1488,0.0
1522,0.0018277496295963886
2,2, 1, 2, 0,19, 0.00,60.00,Monday
9,1072787608.2558675
45,244494330.55021499
207,132695745.20377517
322,1054397090.6724485
358,33624000.00000001
456,934269452.9691987
481,430817814.83512678
812,4194346.04654165
937,510780919.98122116
962,26990293.44725859
1179,2702509.3009124326
1332,205732517.6651163
1377,59047200.0
1414,0.0
1427,0.0
1450,792931420.8082075
1475,1016578744.625907
1488,0.0
1522,0.0016342080961845509
2,2, 1, 2, 0,20, 0.00,60.00,Monday
9,1017930522.7710334
45,244494330.55021499
207,132695745.20377517
322,1049688018.8575969
358,33624000.00000001
456,1157548770.0343285
481,375960729.3506022
812,4193552.1270627744
937,523690694.979668
962,24776202.27620912
1179,2187742.5952556699
1332,205732517.6651163
1377,59047200.0
1414,0.0
1427,0.0
1450,789258964.0498166
1475,1011870466.7305341
1488,0.0
1522,0.001324672956332803
2,2, 1, 2, 0,21, 0.00,60.00,Monday
9,911905154.0920063
45,203745275.45851249
207,116344577.05330327
322,1051868066.7669697
358,29420999.999999998
456,994368458.3700019
481,327035583.91378799
812,4193765.8250531118
937,533969465.30038097
962,16317312.794056539
1179,2123412.2608611688
1332,205732517.6651163
1377,59047200.0
1414,0.0
1427,0.0
1450,794237574.734695
1475,1018253300.9419165
1488,0.0
1522,0.00128606527747832
2,2, 1, 2, 0,22, 0.00,60.00,Monday
9,660243682.1060232
45,81498110.183405
207,67291072.60188759
322,946191283.5205429
358,16812000.000000005
456,662327612.8460686
481,246674781.6547205
812,72000.0
937,461398135.81707689
962,0.0
1179,1479951.6108517717
1332,205732517.6651163
1377,59047200.0
1414,0.0
1427,0.0
1450,724859681.1460234
1475,929307283.5205429
1488,0.0
1522,0.0008937300722792311
2,2, 1, 2, 0,23, 0.00,60.00,Monday
9,359774749.67643669
45,20374527.54585125
207,32702336.300943793
322,33218189.656490014
358,8406000.000000002
456,495068823.4224604
481,212914955.5039396
812,4192178.321013879
937,32191109.897303706
962,0.0
1179,836495.7872279144
1332,34735730.32519592
1377,59047200.0
1414,0.0
1427,0.0
1450,16083608.841671383
1475,20620011.33547613
1488,0.0
1522,0.000506062806181775
2,2, 1, 2, 0,24, 0.00,60.00,Monday
9,581384885.4526566
45,20374527.54585125
207,32702336.300943793
322,150628642.72708125
358,8406000.000000002
456,569891556.5426825
481,340364709.19815328
812,72000.0
937,175821213.03455217
962,0.0
1179,514766.65505349196
1332,128896112.407398
1377,59047200.0
1414,0.0
1427,0.0
1450,110877501.32712338
1475,142150642.72708125
1488,0.0
1522,0.00031028854901625236
2,3, 1, 3, 0, 1, 0.00,60.00,Tuesday
9,450667733.51971098
45,20374527.54585125
207,32702336.300943793
322,195660729.2207024
358,8406000.000000002
456,549069240.653977
481,227510711.0694163
812,72000.0
937,194018479.5523386
962,0.0
1179,257843.17259234927
1332,111032958.60334246
1377,59047200.0
1414,0.0
1427,0.0
1450,146002528.79214788
1475,187182729.2207024
1488,0.0
1522,0.00015705041659231983
2,3, 1, 3, 0, 2, 0.00,60.00,Tuesday
9,467237328.73262247
45,20374527.54585125
207,32702336.300943793
322,327377214.64366957
358,8406000.000000002
456,459252866.93716248
481,204771079.47047407
812,4191512.0220867379
937,297114897.33818188
962,0.0
1179,322303.96501362827
1332,150342185.41515935
1377,59047200.0
1414,0.0
1427,0.0
1450,245528168.04483459
1475,314779702.6215828
1488,0.0
1522,0.00019401279299642536
2,3, 1, 3, 0, 3, 0.00,60.00,Tuesday
9,457452474.9580721
45,20374527.54585125
207,32702336.300943793
322,306388227.2503564
358,8406000.000000002
456,462937498.08556917
481,204761581.68439258
812,71999.99999999999
937,280505461.0632353
962,0.0
1179,322303.965721854
1332,140566829.42669077
1377,59047200.0
1414,0.0
1427,0.0
1450,232369977.255278
1475,297910227.2503563
1488,0.0
1522,0.00019376277149054296
2,3, 1, 3, 0, 4, 0.00,60.00,Tuesday
9,434914236.7059622
45,20374527.54585125
207,32702336.300943793
322,301050099.53588286
358,8406000.000000002
456,461753299.9098879
481,203882986.88466049
812,72000.0
937,263562784.9266649
962,0.0
1179,257843.17259259313
1332,118907185.97435004
1377,59047200.0
1414,0.0
1427,0.0
1450,228206237.6379886
1475,292572099.53588286
1488,0.0
1522,0.00015666004343894627
2,3, 1, 3, 0, 5, 0.00,60.00,Tuesday
9,544859855.7089487
45,20374527.54585125
207,32702336.300943793
322,462447930.3858215
358,8406000.000000002
456,899949863.9957916
481,280744771.93280586
812,4191443.8212130849
937,399067264.2539693
962,0.0
1179,257843.17256043395
1332,151991019.9291918
1377,59047200.0
1414,0.0
1427,0.0
1450,350883379.5203946
1475,449850486.56460848
1488,0.0
1522,0.00015598757104117863
2,3, 1, 3, 0, 6, 0.00,60.00,Tuesday
9,527665053.1221652
45,20374527.54585125
207,32702336.300943793
322,469811325.19702497
358,8406000.000000002
456,898098190.038252
481,274974159.8485247
812,71999.99999999999
937,397566101.75119116
962,0.0
1179,257843.17261234
1332,140566829.42669077
1377,59047200.0
1414,0.0
1427,0.0
1450,359839993.6536795
1475,461333325.19702497
1488,0.0
1522,0.00015473258951095034
2,3, 1, 3, 0, 7, 0.00,60.00,Tuesday
9,702099710.3590753
45,81498110.183405
207,67291072.60188759
322,1914435835.6328173
358,16812000.000000005
456,961666516.6550872
481,288530809.9085102
812,72000.0
937,1073392357.2923453
962,0.0
1179,257843.1717554008
1332,205732517.6651163
1377,59047200.0
1414,0.0
1427,0.0
1450,1480090431.7935978
1475,1897551835.6328178
1488,0.0
1522,0.00015611042888721778
2,3, 1, 3, 0, 8, 0.00,60.00,Tuesday
9,662862171.0532768
45,81498110.183405
207,67291072.60188759
322,1718147475.6802476
358,16812000.000000005
456,1036000408.2183679
481,293578670.6022847
812,4192348.597897396
937,930926630.7704785
962,0.0
1179,966910.8262177438
1332,205732517.6651163
1377,14761800.0
1414,0.0
1427,0.0
1450,1323771639.124233
1475,1697143127.08235
1488,0.0
1522,0.0005829739420844873
2,3, 1, 3, 0, 9, 0.00,60.00,Tuesday
9,935718482.5497241
45,203745275.45851249
207,116344577.05330327
322,1592883516.1245328
358,29420999.999999998
456,909217885.0498746
481,409896112.3718928
812,4192716.334493039
937,806560862.4581223
962,0.0
1179,1482598.1632216727
1332,205732517.6651163
1377,0.0
1414,0.0
1427,0.0
1450,1216230443.8362308
1475,1559269799.7900398
1488,0.0
1522,0.0008991910587543997
2,3, 1, 3, 0,10, 0.00,60.00,Tuesday
9,1084230281.5994814
45,366741495.8253225
207,149046913.35424707
322,1438815779.8759666
358,37827000.0
456,1022928567.1526569
481,362709354.753551
812,72000.0
937,678261687.441694
962,5308221.312533251
1179,2062730.635735344
1332,205732517.6651163
1377,0.0
1414,0.0
1427,0.0
1450,1092715088.303254
1475,1400916779.8759666
1488,0.0
1522,0.0012443534399471865
2,3, 1, 3, 0,11, 0.00,60.00,Tuesday
9,1049560030.2170179
45,366741495.8253225
207,149046913.35424707
322,1367991676.099018
358,37827000.0
456,894674364.9314962
481,328039103.3707348
812,4194342.440523654
937,634519017.2784035
962,12344460.997296008
1179,2642880.6022358697
1332,205732517.6651163
1377,0.0
1414,0.0
1427,0.0
1450,1034256860.2536259
1475,1325970333.6584948
1488,0.0
1522,0.001597053266149363
2,3, 1, 3, 0,12, 0.00,60.00,Tuesday
9,1159981036.5216976
45,366741495.8253225
207,149046913.35424707
322,1288763367.8937772
358,37827000.0
456,889673626.3082255
481,438460109.6747947
812,8319643.871371616
937,589960082.5949113
962,19060636.991993686
1179,3674264.702619898
1332,205732517.6651163
1377,0.0
1414,0.0
1427,0.0
1450,969241044.7374764
1475,1242616724.0224057
1488,0.0
1522,0.002216755604168959
2,3, 1, 3, 0,13, 0.00,60.00,Tuesday
9,1086330429.1781202
45,366741495.8253225
207,149046913.35424707
322,1228173544.2810159
358,37827000.0
456,1066430479.072216
481,364809502.3310214
812,4196429.978604205
937,563479486.3011822
962,23426951.989502089
1179,3996504.973197585
1332,205732517.6651163
1377,0.0
1414,0.0
1427,0.0
1450,925197089.1558812
1475,1186150114.3024119
1488,0.0
1522,0.0024128815306563549
2,3, 1, 3, 0,14, 0.00,60.00,Tuesday
9,1075993380.3865126
45,366741495.8253225
207,149046913.35424707
322,1201489786.646855
358,37827000.0
456,1012961766.1480118
481,354472453.53944846
812,8319147.482325228
937,547150930.1170447
962,26498113.36379537
1179,3932038.1117250679
1332,205732517.6651163
1377,0.0
1414,0.0
1427,0.0
1450,901168038.5483333
1475,1155343639.1645299
1488,0.0
1522,0.00237818618533829
2,3, 1, 3, 0,15, 0.00,60.00,Tuesday
9,1062232396.8583839
45,366741495.8253225
207,149046913.35424707
322,1181284934.6626783
358,37827000.0
456,956061565.095347
481,340711470.0117533
812,4194583.624454195
937,536812195.5722178
962,28699370.878087798
1179,3222956.3017684246
1332,205732517.6651163
1377,0.0
1414,0.0
1427,0.0
1450,888625413.8098148
1475,1139263351.038224
1488,0.0
1522,0.0019445893957338917
2,3, 1, 3, 0,16, 0.00,60.00,Tuesday
9,1049939089.6459684
45,366741495.8253225
207,149046913.35424707
322,1160705802.9541727
358,37827000.0
456,896596067.2690168
481,328418162.79953148
812,4194626.023631226
937,523360938.56806358
962,31299502.51716716
1179,2900720.5232873305
1332,205732517.6651163
1377,0.0
1414,0.0
1427,0.0
1450,872573658.0058222
1475,1118684176.9305413
1488,0.0
1522,0.001750944755516796
2,3, 1, 3, 0,17, 0.00,60.00,Tuesday
9,1094264865.0091997
45,366741495.8253225
207,149046913.35424707
322,1165186558.2226539
358,37827000.0
456,896800536.833827
481,328458538.1627231
812,4195067.96496002
937,527225185.289395
962,31755080.96669514
1179,2965157.1896391885
1332,205732517.6651163
1377,44285400.0
1414,0.0
1427,0.0
1450,876068302.4010013
1475,1123164490.2576938
1488,0.0
1522,0.001790629823324976
2,3, 1, 3, 0,18, 0.00,60.00,Tuesday
9,1109031103.3128472
45,366741495.8253225
207,149046913.35424707
322,1181337934.2343655
358,37827000.0
456,896822748.6964351
481,328462976.4663306
812,4194688.987255265
937,538952873.3261602
962,30843385.153937714
1179,3029634.889353753
1332,205732517.6651163
1377,59047200.0
1414,0.0
1427,0.0
1450,888666671.2927461
1475,1139316245.2471104
1488,0.0
1522,0.0018307069398579806
2,3, 1, 3, 0,19, 0.00,60.00,Tuesday
9,1059632670.640876
45,244494330.55021499
207,132695745.20377517
322,1233150499.256592
358,33624000.00000001
456,914902637.9053007
481,417662877.2201338
812,4194625.831675981
937,571386824.7804571
962,19535829.28955531
1179,2707351.6702334706
1332,205732517.6651163
1377,59047200.0
1414,0.0
1427,0.0
1450,932358861.2714346
1475,1195331873.424916
1488,0.0
1522,0.001635785498819064
2,3, 1, 3, 0,20, 0.00,60.00,Tuesday
9,977893179.4073532
45,244494330.55021499
207,132695745.20377517
322,1270588434.4916743
358,33624000.00000001
456,990681882.8725889
481,335923385.9869237
812,4193956.887141309
937,596471197.4392984
962,15514386.065908174
1179,2191663.5658027848
1332,205732517.6651163
1377,59047200.0
1414,0.0
1427,0.0
1450,961560972.5315356
1475,1232770477.604533
1488,0.0
1522,0.0013228952292716175
2,3, 1, 3, 0,21, 0.00,60.00,Tuesday
9,874399235.1645519
45,203745275.45851249
207,116344577.05330327
322,1304801157.6989153
358,29420999.999999998
456,841177132.2314332
481,289529664.9863348
812,4193516.213551424
937,616457562.8703668
962,5690774.673951945
1179,2127192.653496687
1332,205732517.6651163
1377,59047200.0
1414,0.0
1427,0.0
1450,991525580.3585839
1475,1271186641.4853638
1488,0.0
1522,0.001284755945292586
2,3, 1, 3, 0,22, 0.00,60.00,Tuesday
9,627524245.5139191
45,81498110.183405
207,67291072.60188759
322,1238184983.371988
358,16812000.000000005
456,548356310.5272405
481,213955345.0626111
812,4192616.519913761
937,568594855.2761643
962,0.0
1179,1482591.4215252626
1332,205732517.6651163
1377,59047200.0
1414,0.0
1427,0.0
1450,949400686.144618
1475,1217180366.8520745
1488,0.0
1522,0.0008989421762242731
2,3, 1, 3, 0,23, 0.00,60.00,Tuesday
9,372213359.13094827
45,20374527.54585125
207,32702336.300943793
322,82617369.10539495
358,8406000.000000002
456,469376296.6283238
481,191942372.65152938
812,72000.0
937,87133749.99539592
962,0.0
1179,837990.3013508929
1332,68146922.6321206
1377,59047200.0
1414,0.0
1427,0.0
1450,57828707.90220806
1475,74139369.10539495
1488,0.0
1522,0.0005032746586533831