Program Version,EnergyPlus, Version 9.2.0-921312fa1d, YMD=2020.12.22 18:28
1,5,Environment Title[],Latitude[deg],Longitude[deg],Time Zone[],Elevation[m]
2,8,Day of Simulation[],Month[],Day of Month[],DST Indicator[1=yes 0=no],Hour[],StartMinute[],EndMinute[],DayType
3,5,Cumulative Day of Simulation[],Month[],Day of Month[],DST Indicator[1=yes 0=no],DayType  ! When Daily Meters Requested
4,2,Cumulative Days of Simulation[],Month[]  ! When Monthly Meters Requested
5,1,Cumulative Days of Simulation[] ! When Run Period Meters Requested
6,1,Calendar Year of Simulation[] ! When Annual Meters Requested
9,1,Electricity:Facility [J] !Hourly
1061,1,Heating:Electricity [J] !Hourly
1008,1,Cooling:Electricity [J] !Hourly
45,1,InteriorLights:Electricity [J] !Hourly
958,1,ExteriorLights:Electricity [J] !Hourly
107,1,InteriorEquipment:Electricity [J] !Hourly
918,1,Fans:Electricity [J] !Hourly
1079,1,Pumps:Electricity [J] !Hourly
304,1,Refrigeration:Electricity [J] !Hourly
170,1,Gas:Facility [J] !Hourly
1048,1,Heating:Gas [J] !Hourly
206,1,InteriorEquipment:Gas [J] !Hourly
486,1,WaterSystems:Gas [J] !Hourly
623,1,Heating:EnergyTransfer [J] !Hourly
648,1,Cooling:EnergyTransfer [J] !Hourly
769,1,WaterSystems:EnergyTransfer [J] !Hourly
279,1,Refrigeration:EnergyTransfer [J] !Hourly
1023,1,HeatingCoils:EnergyTransfer [J] !Hourly
995,1,CoolingCoils:EnergyTransfer [J] !Hourly
End of Data Dictionary
1,RUNPERIOD 1,  41.98, -87.92,  -6.00, 201.00
2,1, 1, 1, 0, 1, 0.00,60.00,Holiday
9,48713304.00537001
45,6681021.5801592
107,20077200.0
170,239080705.72465054
206,10803960.0
279,11952501.018252749
304,4985713.310117099
486,8326296.147699798
623,3025358.401493051
648,10130795.207240303
769,6438149.023229638
918,7864969.111196254
958,9104400.0
995,0.0
1008,0.0
1023,173334220.51285646
1048,219950449.57695074
1061,0.0
1079,0.003897450427459522
2,1, 1, 1, 0, 2, 0.00,60.00,Holiday
9,34080511.90322137
45,2227007.1933864
107,18000000.0
170,10875960.0
206,10803960.0
279,11771830.998744846
304,4749104.709834965
486,72000.0
623,0.0
648,0.0
769,0.0
918,0.0
958,9104400.0
995,0.0
1008,0.0
1023,0.0
1048,0.0
1061,0.0
1079,0.0
2,1, 1, 1, 0, 3, 0.00,60.00,Holiday
9,34147751.479929808
45,2227007.1933864
107,18000000.0
170,12935364.2101226
206,10803960.0
279,12162335.034769144
304,4816344.2865434079
486,2131404.210122601
623,0.0
648,0.0
769,0.0
918,0.0
958,9104400.0
995,0.0
1008,0.0
1023,0.0
1048,0.0
1061,0.0
1079,0.0
2,1, 1, 1, 0, 4, 0.00,60.00,Holiday
9,34190450.31358864
45,2227007.1933864
107,18000000.0
170,10875960.0
206,10803960.0
279,12410892.669613146
304,4859043.1202022419
486,72000.0
623,0.0
648,0.0
769,0.0
918,0.0
958,9104400.0
995,0.0
1008,0.0
1023,0.0
1048,0.0
1061,0.0
1079,0.0
2,1, 1, 1, 0, 5, 0.00,60.00,Holiday
9,34729717.59974
45,2227007.1933864
107,18000000.0
170,12935385.550206878
206,10803960.0
279,14751757.930445593
304,5398310.406353602
486,2131425.5502068775
623,0.0
648,0.0
769,0.0
918,0.0
958,9104400.0
995,0.0
1008,0.0
1023,0.0
1048,0.0
1061,0.0
1079,0.0
2,1, 1, 1, 0, 6, 0.00,60.00,Holiday
9,49233408.2400905
45,6681021.5801592
107,20077200.0
170,271117596.65759369
206,16205939.999999999
279,14235092.218527928
304,5505817.548735045
486,72000.0
623,9310725.469721143
648,4261130.162675935
769,0.0
918,7864969.111196254
958,9104400.0
995,0.0
1008,0.0
1023,200887392.22983394
1048,254839656.65759368
1061,0.0
1079,0.0
2,1, 1, 1, 0, 7, 0.00,60.00,Holiday
9,101348899.44861186
45,13362043.1603184
107,65077200.0
170,283095365.4355593
206,48617819.99999999
279,15174720.319438138
304,5940287.174758051
486,6256158.210013581
623,0.0
648,16032108.091895037
769,3862881.3690913377
918,7864969.111196254
958,9104400.0
995,0.0
1008,0.0
1023,179861338.0474385
1048,228221387.2255457
1061,0.0
1079,0.00233916835688489
2,1, 1, 1, 0, 8, 0.00,60.00,Holiday
9,94339628.13183752
45,13362043.1603184
107,65077200.0
170,293298729.4434538
206,75627720.0
279,14533290.334015768
304,5759315.857982015
486,6256895.086420558
623,0.0
648,26822573.87429995
769,3862889.1306534737
918,7864969.111196254
958,2276100.0
995,0.0
1008,0.0
1023,166620922.85630924
1048,211414114.35703326
1061,0.0
1079,0.0023408478310406198
2,1, 1, 1, 0, 9, 0.00,60.00,Holiday
9,74062303.21818695
45,13362043.1603184
107,47077200.0
170,263883561.96954895
206,54019800.0
279,14526561.588519928
304,5758090.944331978
486,4195880.674629442
623,0.0
648,25284535.477675126
769,3862892.4802076045
918,7864969.111196254
958,0.0
995,0.0
1008,0.0
1023,162109515.8522095
1048,205667881.29491953
1061,0.0
1079,0.002340323888997316
2,1, 1, 1, 0,10, 0.00,60.00,Holiday
9,74096514.2053099
45,13362043.1603184
107,47077200.0
170,248327643.48073978
206,54019800.0
279,14732601.831602741
304,5792301.9314560149
486,6258137.214504878
623,0.0
648,27311271.635424485
769,3862893.8713982857
918,7864969.111196254
958,0.0
995,0.0
1008,0.0
1023,148221752.26685275
1048,188049706.26623488
1061,0.0
1079,0.0023392302114235658
2,1, 1, 1, 0,11, 0.00,60.00,Holiday
9,92087565.14992912
45,13362043.1603184
107,65077200.0
170,297355989.2963
206,118843560.0
279,14671483.164688204
304,5783352.870612912
486,18684466.175239929
623,0.0
648,37214070.17563084
769,12876302.525769448
918,7864969.111196254
958,0.0
995,0.0
1008,0.0
1023,125875843.18808607
1048,159827963.12106005
1061,0.0
1079,0.007801551469495753
2,1, 1, 1, 0,12, 0.00,60.00,Holiday
9,96266773.50763946
45,13362043.1603184
107,65077200.0
170,296082539.007498
206,145853460.00000004
279,17686016.377811426
304,9962561.228326073
486,16610127.735457626
623,0.0
648,47184249.68224357
769,12876307.972523792
918,7864969.111196254
958,0.0
995,0.0
1008,0.0
1023,105222948.7810707
1048,133618951.27204043
1061,0.0
1079,0.007798739996386353
2,1, 1, 1, 0,13, 0.00,60.00,Holiday
9,92895466.59198448
45,13362043.1603184
107,65077200.0
170,260862899.22956864
206,129647519.99999999
279,18073657.404532538
304,6591254.314227604
486,12467356.179624267
623,0.0
648,50502423.85766998
769,10301025.808678788
918,7864969.111196254
958,0.0
995,0.0
1008,0.0
1023,93521870.02129716
1048,118748023.0499444
1061,0.0
1079,0.006242227182212498
2,1, 1, 1, 0,14, 0.00,60.00,Holiday
9,92178622.9052481
45,13362043.1603184
107,65077200.0
170,240020115.04843725
206,113441580.0
279,15207825.723529457
304,5874410.62749545
486,14535178.03471168
623,0.0
648,48478138.77422441
769,10300981.632474589
918,7864969.111196254
958,0.0
995,0.0
1008,0.0
1023,88207656.19019717
1048,112043357.01372554
1061,0.0
1079,0.006237993344677842
2,1, 1, 1, 0,15, 0.00,60.00,Holiday
9,74187731.21415018
45,13362043.1603184
107,47077200.0
170,205055185.57060195
206,75627720.0
279,15266881.46397799
304,5883518.937955564
486,10392944.761086258
623,0.0
648,39481023.16213829
769,7725787.502528807
918,7864969.111196254
958,0.0
995,0.0
1008,0.0
1023,93687932.91386169
1048,119034520.80951567
1061,0.0
1079,0.004679949138033645
2,1, 1, 1, 0,16, 0.00,60.00,Holiday
9,74140633.31141074
45,13362043.1603184
107,47077200.0
170,204100583.7860704
206,70225740.0
279,14985727.856111862
304,5836421.035214956
486,10394076.069468348
623,0.0
648,35928993.77134724
769,7725774.780060574
918,7864969.111196254
958,0.0
995,0.0
1008,0.0
1023,97196289.92052263
1048,123480767.71660204
1061,0.0
1079,0.004681127934953516
2,1, 1, 1, 0,17, 0.00,60.00,Holiday
9,80686199.8048635
45,13362043.1603184
107,47077200.0
170,218087091.2999558
206,81029700.0
279,13286892.420251862
304,5553687.528668623
486,12457289.640594198
623,0.0
648,35075599.02006971
769,7725781.318570731
918,7864969.111196254
958,6828300.0
995,0.0
1008,0.0
1023,98072956.34019348
1048,124600101.6593616
1061,0.0
1079,0.0046802172337329869
2,1, 1, 1, 0,18, 0.00,60.00,Holiday
9,100972646.3197426
45,13362043.1603184
107,65077200.0
170,224582098.27120287
206,91833660.00000002
279,13346449.657808846
304,5564034.041988442
486,12467340.197805644
623,0.0
648,41017849.4060056
769,10301026.235662163
918,7864969.111196254
958,9104400.0
995,0.0
1008,0.0
1023,94642987.37067858
1048,120281098.07339719
1061,0.0
1079,0.006239531383302905
2,1, 1, 1, 0,19, 0.00,60.00,Holiday
9,100980629.75167158
45,13362043.1603184
107,65077200.0
170,226852951.21879445
206,91833660.00000002
279,13393086.925842466
304,5572017.472354549
486,16616148.170234474
623,0.0
648,46284377.739590678
769,12876314.243649152
918,7864969.111196254
958,9104400.0
995,0.0
1008,0.0
1023,93207387.18822859
1048,118403143.04855997
1061,0.0
1079,0.007802376983180464
2,1, 1, 1, 0,20, 0.00,60.00,Holiday
9,101502016.35611812
45,13362043.1603184
107,65077200.0
170,224502078.17521803
206,91833660.00000002
279,15630578.614987918
304,6093404.076805724
486,18677388.806168587
623,0.0
648,46570204.776230659
769,12876314.901045362
918,7864969.111196254
958,9104400.0
995,0.0
1008,0.0
1023,89727474.23949513
1048,113991029.36904943
1061,0.0
1079,0.0077977371359091549
2,1, 1, 1, 0,21, 0.00,60.00,Holiday
9,83459281.93822381
45,13362043.1603184
107,47077200.0
170,213533119.57326807
206,81029700.0
279,15432677.263121583
304,6050669.660468027
486,12466811.1398094
623,0.0
648,41222769.545257348
769,10301040.745674957
918,7864969.111196254
958,9104400.0
995,0.0
1008,0.0
1023,94498566.89927709
1048,120036608.43345866
1061,0.0
1079,0.00624112569949598
2,1, 1, 1, 0,22, 0.00,60.00,Holiday
9,83225794.20136599
45,13362043.1603184
107,47077200.0
170,215226160.14550973
206,75627720.0
279,14425575.115692433
304,5817181.922051437
486,18679874.469469258
623,0.0
648,39504239.169292669
769,12876300.522619734
918,7864969.111196254
958,9104400.0
995,0.0
1008,0.0
1023,95188986.79522474
1048,120918565.67604046
1061,0.0
1079,0.007799904490415321
2,1, 1, 1, 0,23, 0.00,60.00,Holiday
9,82851442.41870561
45,13362043.1603184
107,47077200.0
170,205178327.9138042
206,64823759.99999999
279,12820640.042139765
304,5442830.140951271
486,12466098.086690739
623,0.0
648,35013494.90473816
769,10301039.243849645
918,7864969.111196254
958,9104400.0
995,0.0
1008,0.0
1023,100672744.31439439
1048,127888469.82711347
1061,0.0
1079,0.006239688900637816
2,1, 1, 1, 0,24, 0.00,60.00,Holiday
9,87166150.60138506
45,13362043.1603184
107,47077200.0
170,158128368.04584474
206,10803960.0
279,16455878.968368095
304,9757538.326752186
486,8321978.026262406
623,0.0
648,27675147.768093338
769,5150521.00531958
918,7864969.111196254
958,9104400.0
995,0.0
1008,0.0
1023,109462248.23568827
1048,139002430.01958234
1061,0.0
1079,0.0031182148587849116
2,2, 1, 2, 0, 1, 0.00,60.00,Monday
9,49431226.54482007
45,6681021.5801592
107,20077200.0
170,191218464.53799267
206,10803960.0
279,15029435.93128536
304,5703635.850341419
486,6258383.001833692
623,1686677.0951238699
648,10730699.428900138
769,5159918.003723182
918,7864969.111196254
958,9104400.0
995,0.0
1008,0.0
1023,137203111.75363935
1048,174156121.53615899
1061,0.0
1079,0.003123190181275591
2,2, 1, 2, 0, 2, 0.00,60.00,Monday
9,34132420.22742495
45,2227007.1933864
107,18000000.0
170,12935489.883923926
206,10803960.0
279,12076802.527929828
304,4801013.034038553
486,2131529.8839239266
623,0.0
648,0.0
769,0.0
918,0.0
958,9104400.0
995,0.0
1008,0.0
1023,0.0
1048,0.0
1061,0.0
1079,0.0
2,2, 1, 2, 0, 3, 0.00,60.00,Monday
9,34219236.25196869
45,2227007.1933864
107,18000000.0
170,10875960.0
206,10803960.0
279,12584671.602969785
304,4887829.058582292
486,72000.0
623,0.0
648,0.0
769,0.0
918,0.0
958,9104400.0
995,0.0
1008,0.0
1023,0.0
1048,0.0
1061,0.0
1079,0.0
2,2, 1, 2, 0, 4, 0.00,60.00,Monday
9,34264816.775713238
45,2227007.1933864
107,18000000.0
170,12935324.8938682
206,10803960.0
279,12850547.455873402
304,4933409.582326831
486,2131364.8938681997
623,0.0
648,0.0
769,0.0
918,0.0
958,9104400.0
995,0.0
1008,0.0
1023,0.0
1048,0.0
1061,0.0
1079,0.0
2,2, 1, 2, 0, 5, 0.00,60.00,Monday
9,34810068.25839017
45,2227007.1933864
107,18000000.0
170,10875960.0
206,10803960.0
279,15227126.778856054
304,5478661.065003781
486,72000.0
623,0.0
648,0.0
769,0.0
918,0.0
958,9104400.0
995,0.0
1008,0.0
1023,0.0
1048,0.0
1061,0.0
1079,0.0
2,2, 1, 2, 0, 6, 0.00,60.00,Monday
9,49270227.59659835
45,6681021.5801592
107,20077200.0
170,185932927.60628958
206,16205939.999999999
279,14448811.092459917
304,5542636.905242894
486,2131386.2816285558
623,4982077.995097863
648,6048969.638747198
769,0.0
918,7864969.111196254
958,9104400.0
995,0.0
1008,0.0
1023,132055313.66922337
1048,167595601.324661
1061,0.0
1079,0.0
2,2, 1, 2, 0, 7, 0.00,60.00,Monday
9,101383924.17832184
45,13362043.1603184
107,65077200.0
170,193387511.3811587
206,48617819.99999999
279,15377620.251575072
304,5975311.904463328
486,6256725.199479201
623,0.0
648,21976751.083201827
769,3869923.6809752446
918,7864969.111196254
958,9104400.0
995,0.0
1008,0.0
1023,109090798.02455116
1048,138512966.1816795
1061,0.0
1079,0.0023438496942239609
2,2, 1, 2, 0, 8, 0.00,60.00,Monday
9,94395979.76197589
45,13362043.1603184
107,65077200.0
170,215425327.53232844
206,75627720.0
279,14857383.380283555
304,5815667.481098212
486,18695631.524891687
623,0.0
648,34481116.184648539
769,15479753.738428355
918,7864969.111196254
958,2276100.0
995,0.0
1008,0.0
1023,95356614.89173377
1048,121101976.00743672
1061,0.0
1079,0.009363022954307798
2,2, 1, 2, 0, 9, 0.00,60.00,Monday
9,74119129.90830896
45,13362043.1603184
107,47077200.0
170,195050236.2423805
206,54019800.0
279,14853064.674588634
304,5814917.628210835
486,18688885.20111152
623,0.0
648,31022963.743606964
769,14189784.95777232
918,7864969.111196254
958,0.0
995,0.0
1008,0.0
1023,96336025.04148288
1048,122341551.04126899
1061,0.0
1079,0.008583465748968665
2,2, 1, 2, 0,10, 0.00,60.00,Monday
9,74170183.06512109
45,13362043.1603184
107,47077200.0
170,190071771.64381654
206,54019800.0
279,15082539.640500196
304,5865970.786585929
486,16606971.982269958
623,0.0
648,29339227.994975669
769,11609804.155648107
918,7864969.111196254
958,0.0
995,0.0
1008,0.0
1023,94042851.25723277
1048,119444999.66154658
1061,0.0
1079,0.007020512678953981
2,2, 1, 2, 0,11, 0.00,60.00,Monday
9,92182586.08771333
45,13362043.1603184
107,65077200.0
170,235573282.17835704
206,118843560.0
279,14966549.381160682
304,5878373.809953987
486,14531789.723362402
623,0.0
648,36965612.80205655
769,10319834.582174056
918,7864969.111196254
958,0.0
995,0.0
1008,0.0
1023,80367395.57134098
1048,102197932.45499462
1061,0.0
1079,0.006244682218266091
2,2, 1, 2, 0,12, 0.00,60.00,Monday
9,96330293.89641917
45,13362043.1603184
107,65077200.0
170,248072587.82426787
206,145853460.00000004
279,17893857.035161735
304,10026081.617884458
486,14540254.420990782
623,0.0
648,46379984.52173783
769,11609804.721392863
918,7864969.111196254
958,0.0
995,0.0
1008,0.0
1023,68956384.17532312
1048,87678873.40327703
1061,0.0
1079,0.007020062419054621
2,2, 1, 2, 0,13, 0.00,60.00,Monday
9,93003236.40197765
45,13362043.1603184
107,65077200.0
170,223448563.4694291
206,129647519.99999999
279,18368771.177330097
304,6699024.124219986
486,14532479.337269
623,0.0
648,53492146.45347552
769,10319831.175476503
918,7864969.111196254
958,0.0
995,0.0
1008,0.0
1023,62396484.45394934
1048,79268564.13216014
1061,0.0
1079,0.0062430109485062169
2,2, 1, 2, 0,14, 0.00,60.00,Monday
9,92258753.42535082
45,13362043.1603184
107,65077200.0
170,216017901.15320579
206,113441580.0
279,15545761.256155704
304,5954541.148373694
486,12461074.756402042
623,0.0
648,52046631.37029053
769,9029850.572470475
918,7864969.111196254
958,0.0
995,0.0
1008,0.0
1023,70939577.02786258
1048,90115246.39680374
1061,0.0
1079,0.005462486474333648
2,2, 1, 2, 0,15, 0.00,60.00,Monday
9,74250091.04727222
45,13362043.1603184
107,47077200.0
170,197414695.4463138
206,75627720.0
279,15626040.195652178
304,5945878.771076234
486,10392741.014161455
623,0.0
648,41016291.66408442
769,7739877.445737831
918,7864969.111196254
958,0.0
995,0.0
1008,0.0
1023,87648671.46642505
1048,111394234.43215233
1061,0.0
1079,0.004681329549064016
2,2, 1, 2, 0,16, 0.00,60.00,Monday
9,74202961.63052878
45,13362043.1603184
107,47077200.0
170,195828196.92116604
206,70225740.0
279,15300629.486649305
304,5898749.354332385
486,10393922.79146471
623,0.0
648,34473820.82179518
769,7739872.128940014
918,7864969.111196254
958,0.0
995,0.0
1008,0.0
1023,90635706.23679514
1048,115208534.12970132
1061,0.0
1079,0.004681744989978016
2,2, 1, 2, 0,17, 0.00,60.00,Monday
9,80754557.08378543
45,13362043.1603184
107,47077200.0
170,202688280.0132241
206,81029700.0
279,13563149.051039009
304,5622044.807588304
486,10392966.682386663
623,0.0
648,34600763.905415568
769,7739868.464333475
918,7864969.111196254
958,6828300.0
995,0.0
1008,0.0
1023,87529861.18035743
1048,111265613.33083743
1061,0.0
1079,0.004682475918599917
2,2, 1, 2, 0,18, 0.00,60.00,Monday
9,101032733.16898357
45,13362043.1603184
107,65077200.0
170,210577529.7966654
206,91833660.00000002
279,13678079.49409876
304,5624120.891227622
486,14533024.463119828
623,0.0
648,45300611.43534173
769,10319841.008276236
918,7864969.111196254
958,9104400.0
995,0.0
1008,0.0
1023,81998815.77302145
1048,104210845.33354557
1061,0.0
1079,0.006241281481472274
2,2, 1, 2, 0,19, 0.00,60.00,Monday
9,101049086.31921038
45,13362043.1603184
107,65077200.0
170,210356430.62429518
206,91833660.00000002
279,13744054.11411654
304,5640474.039112063
486,18686859.8351835
623,0.0
648,47063128.65528987
769,14189784.147297014
918,7864969.111196254
958,9104400.0
995,0.0
1008,0.0
1023,78559929.07222702
1048,99835910.78911168
1061,0.0
1079,0.008583646539203556
2,2, 1, 2, 0,20, 0.00,60.00,Monday
9,101591423.67973277
45,13362043.1603184
107,65077200.0
170,205659804.17948363
206,91833660.00000002
279,15967855.570416689
304,6182811.398853436
486,20765353.879576979
623,0.0
648,47496736.305659119
769,15479761.588209682
918,7864969.111196254
958,9104400.0
995,0.0
1008,0.0
1023,73216370.45014969
1048,93060790.29990661
1061,0.0
1079,0.009364690153096295
2,2, 1, 2, 0,21, 0.00,60.00,Monday
9,83562085.07570611
45,13362043.1603184
107,47077200.0
170,190991927.18234319
206,81029700.0
279,15736446.473818684
304,6153472.796390528
486,16608171.797197456
623,0.0
648,42957811.91682909
769,12899807.243453904
918,7864969.111196254
958,9104400.0
995,0.0
1008,0.0
1023,73435676.69303544
1048,93354055.38514573
1061,0.0
1079,0.007800931504829161
2,2, 1, 2, 0,22, 0.00,60.00,Monday
9,83344602.18136557
45,13362043.1603184
107,47077200.0
170,185156796.7958578
206,75627720.0
279,14721613.704076149
304,5935989.9012676109
486,18688399.745749594
623,0.0
648,41321941.56094706
769,14189787.428002397
918,7864969.111196254
958,9104400.0
995,0.0
1008,0.0
1023,71448917.51165496
1048,90840677.05010818
1061,0.0
1079,0.008583301352247343
2,2, 1, 2, 0,23, 0.00,60.00,Monday
9,82930347.53802909
45,13362043.1603184
107,47077200.0
170,186019872.97917945
206,64823759.99999999
279,13119287.322338237
304,5521735.259488791
486,14536941.376431892
623,0.0
648,36752453.96100225
769,11609813.82344278
918,7864969.111196254
958,9104400.0
995,0.0
1008,0.0
1023,83917418.97475749
1048,106659171.60274759
1061,0.0
1079,0.007025652122874086
2,2, 1, 2, 0,24, 0.00,60.00,Monday
9,87208883.63033237
45,13362043.1603184
107,47077200.0
170,144132579.30897177
206,10803960.0
279,16712277.137364865
304,9800271.354918313
486,10388530.712563184
623,0.0
648,29343502.73368346
769,6449903.312898715
918,7864969.111196254
958,9104400.0
995,0.0
1008,0.0
1023,96784828.49978119
1048,122940088.59640859
1061,0.0
1079,0.003899391649659923
2,3, 1, 3, 0, 1, 0.00,60.00,Tuesday
9,49474859.50520189
45,6681021.5801592
107,20077200.0
170,162850030.08517809
206,10803960.0
279,15297218.329763042
304,5747268.810722693
486,6258445.9432924599
623,459983.2640720913
648,11752955.233475328
769,5169124.565712126
918,7864969.111196254
958,9104400.0
995,0.0
1008,0.0
1023,114817496.3385222
1048,145787624.14188565
1061,0.0
1079,0.0031237369451060424
2,3, 1, 3, 0, 2, 0.00,60.00,Tuesday
9,34183160.27489308
45,2227007.1933864
107,18000000.0
170,12935451.63291077
206,10803960.0
279,12375914.02360404
304,4851753.081506685
486,2131491.6329107687
623,0.0
648,0.0
769,0.0
918,0.0
958,9104400.0
995,0.0
1008,0.0
1023,0.0
1048,0.0
1061,0.0
1079,0.0
2,3, 1, 3, 0, 3, 0.00,60.00,Tuesday
9,34288185.48301172
45,2227007.1933864
107,18000000.0
170,10875960.0
206,10803960.0
279,12916588.055667863
304,4956778.289625328
486,72000.0
623,0.0
648,0.0
769,0.0
918,0.0
958,9104400.0
995,0.0
1008,0.0
1023,0.0
1048,0.0
1061,0.0
1079,0.0
2,3, 1, 3, 0, 4, 0.00,60.00,Tuesday
9,34333464.47229792
45,2227007.1933864
107,18000000.0
170,12935472.906426095
206,10803960.0
279,13210919.7596997
304,5002057.278911527
486,2131512.9064260956
623,0.0
648,0.0
769,0.0
918,0.0
958,9104400.0
995,0.0
1008,0.0
1023,0.0
1048,0.0
1061,0.0
1079,0.0
2,3, 1, 3, 0, 5, 0.00,60.00,Tuesday
9,36722206.84183672
45,2227007.1933864
107,18000000.0
170,10875960.0
206,10803960.0
279,23484245.9064119
304,7390799.648450322
486,72000.0
623,0.0
648,0.0
769,0.0
918,0.0
958,9104400.0
995,0.0
1008,0.0
1023,0.0
1048,0.0
1061,0.0
1079,0.0
2,3, 1, 3, 0, 6, 0.00,60.00,Tuesday
9,51142694.0651324
45,6681021.5801592
107,20077200.0
170,189608577.95410747
206,16205939.999999999
279,22484690.00729982
304,7415103.3737769429
486,2131534.0673884379
623,3951548.78864576
648,6788304.78649493
769,0.0
918,7864969.111196254
958,9104400.0
995,0.0
1008,0.0
1023,134954573.0935955
1048,171271103.88671903
1061,0.0
1079,0.0
2,3, 1, 3, 0, 7, 0.00,60.00,Tuesday
9,102213023.1173682
45,13362043.1603184
107,65077200.0
170,208086368.19266586
206,48617819.99999999
279,18927746.81939895
304,6804410.843512891
486,4195195.845346087
623,0.0
648,22759890.46958639
769,3876855.6809107728
918,7864969.111196254
958,9104400.0
995,0.0
1008,0.0
1023,122309830.39257944
1048,155273352.34731979
1061,0.0
1079,0.0023406606766695557
2,3, 1, 3, 0, 8, 0.00,60.00,Tuesday
9,94394994.86299609
45,13362043.1603184
107,65077200.0
170,239844088.87673176
206,75627720.0
279,14851708.518686183
304,5814682.582116135
486,20767121.33448268
623,0.0
648,34822679.83290852
769,15507424.609451738
918,7864969.111196254
958,2276100.0
995,0.0
1008,0.0
1023,112983533.56695724
1048,143449247.54224909
1061,0.0
1079,0.009365298484188255
2,3, 1, 3, 0, 9, 0.00,60.00,Tuesday
9,74112093.00577276
45,13362043.1603184
107,47077200.0
170,226720673.97858907
206,54019800.0
279,14812529.038699452
304,5807880.725671696
486,18689969.814378058
623,0.0
648,31027689.7264909
769,14215138.289294955
918,7864969.111196254
958,0.0
995,0.0
1008,0.0
1023,121322015.49017185
1048,154010904.16421099
1061,0.0
1079,0.008586401851311054
2,3, 1, 3, 0,10, 0.00,60.00,Tuesday
9,74140547.7397514
45,13362043.1603184
107,47077200.0
170,230605651.67368777
206,54019800.0
279,14985246.998486568
304,5836335.461212112
486,16605682.376705006
623,0.0
648,29054908.349733347
769,11630567.433728073
918,7864969.111196254
958,0.0
995,0.0
1008,0.0
1023,126026377.20867186
1048,159980169.29698278
1061,0.0
1079,0.007024637790521792
2,3, 1, 3, 0,11, 0.00,60.00,Tuesday
9,92123330.43951397
45,13362043.1603184
107,65077200.0
170,279231507.15227308
206,118843560.0
279,14877230.051433377
304,5819118.161752146
486,12467071.754957617
623,0.0
648,36586260.48187818
769,10338280.542923339
918,7864969.111196254
958,0.0
995,0.0
1008,0.0
1023,116446515.97476255
1048,147920875.39731545
1061,0.0
1079,0.006247173575964524
2,3, 1, 3, 0,12, 0.00,60.00,Tuesday
9,96289536.98694825
45,13362043.1603184
107,65077200.0
170,294747755.26163336
206,145853460.00000004
279,17822597.258327255
304,9985324.708412046
486,16608518.02205578
623,0.0
648,45862472.60578403
769,11630558.869317284
918,7864969.111196254
958,0.0
995,0.0
1008,0.0
1023,104152612.66727406
1048,132285777.23957752
1061,0.0
1079,0.007021562872885207
2,3, 1, 3, 0,13, 0.00,60.00,Tuesday
9,92923083.36320701
45,13362043.1603184
107,65077200.0
170,263606922.82162226
206,129647519.99999999
279,18243020.48400352
304,6618871.085446442
486,14532565.710350967
623,0.0
648,52856289.4255629
769,10338261.100974955
918,7864969.111196254
958,0.0
995,0.0
1008,0.0
1023,94081230.23905073
1048,119426837.11127129
1061,0.0
1079,0.006245926174143484
2,3, 1, 3, 0,14, 0.00,60.00,Tuesday
9,92208717.33497674
45,13362043.1603184
107,65077200.0
170,245293393.34175197
206,113441580.0
279,15382117.014553139
304,5904505.057997449
486,12460983.276230254
623,0.0
648,51573598.559925388
769,9045973.991540933
918,7864969.111196254
958,0.0
995,0.0
1008,0.0
1023,94038659.07123265
1048,119390830.06552169
1061,0.0
1079,0.005464630088215906
2,3, 1, 3, 0,15, 0.00,60.00,Tuesday
9,74206797.22096269
45,13362043.1603184
107,47077200.0
170,218313847.23387767
206,75627720.0
279,15376970.095997146
304,5902584.944764989
486,10392955.783296714
623,0.0
648,40435393.3954008
769,7753711.9089823779
918,7864969.111196254
958,0.0
995,0.0
1008,0.0
1023,104145114.11304295
1048,132293171.45058096
1061,0.0
1079,0.004683053077159395
2,3, 1, 3, 0,16, 0.00,60.00,Tuesday
9,74147675.60357556
45,13362043.1603184
107,47077200.0
170,220857403.59244637
206,70225740.0
279,15026280.746511862
304,5843463.327378588
486,10392531.40910696
623,0.0
648,34082547.403384748
769,7753710.66623949
918,7864969.111196254
958,0.0
995,0.0
1008,0.0
1023,110389596.15412504
1048,140239132.18333946
1061,0.0
1079,0.004682308625367462
2,3, 1, 3, 0,17, 0.00,60.00,Tuesday
9,80689143.09957649
45,13362043.1603184
107,47077200.0
170,231675572.94866766
206,81029700.0
279,13303849.411749984
304,5556630.823377863
486,10394183.589715986
623,0.0
648,34096700.36709781
769,7753696.329492181
918,7864969.111196254
958,6828300.0
995,0.0
1008,0.0
1023,110403541.04503438
1048,140251689.3589517
1061,0.0
1079,0.004683977566519764
2,3, 1, 3, 0,18, 0.00,60.00,Tuesday
9,100983524.46170911
45,13362043.1603184
107,65077200.0
170,233073986.64342235
206,91833660.00000002
279,13409319.459375864
304,5574912.183950529
486,14533107.582529929
623,0.0
648,44874546.48523076
769,10338273.984518547
918,7864969.111196254
958,9104400.0
995,0.0
1008,0.0
1023,99749487.48938471
1048,126707219.0608924
1061,0.0
1079,0.006243923570943959
2,3, 1, 3, 0,19, 0.00,60.00,Tuesday
9,100989708.81560107
45,13362043.1603184
107,65077200.0
170,235594242.38038854
206,91833660.00000002
279,13445981.63413921
304,5581096.535500006
486,18686829.489469839
623,0.0
648,46430370.68843629
769,14215137.358414403
918,7864969.111196254
958,9104400.0
995,0.0
1008,0.0
1023,98471332.5820052
1048,125073752.89091867
1061,0.0
1079,0.00858640097498022
2,3, 1, 3, 0,20, 0.00,60.00,Tuesday
9,100994910.40383768
45,13362043.1603184
107,65077200.0
170,237618155.8416586
206,91833660.00000002
279,13476656.045450328
304,5586298.122955257
486,20765609.098469635
623,0.0
648,46635018.13907561
769,15507419.380357637
918,7864969.111196254
958,9104400.0
995,0.0
1008,0.0
1023,98428668.61472127
1048,125018886.74318892
1061,0.0
1079,0.009367767490344827
2,3, 1, 3, 0,21, 0.00,60.00,Tuesday
9,82982718.38399899
45,13362043.1603184
107,47077200.0
170,228357029.04270966
206,81029700.0
279,13405207.761655594
304,5574106.104680642
486,16608560.579662709
623,0.0
648,41665750.88555567
769,12922854.23348676
918,7864969.111196254
958,9104400.0
995,0.0
1008,0.0
1023,102918010.81454529
1048,130718768.46304694
1061,0.0
1079,0.007803701324389434
2,3, 1, 3, 0,22, 0.00,60.00,Tuesday
9,82859526.1002855
45,13362043.1603184
107,47077200.0
170,227506699.60350088
206,75627720.0
279,12868090.731401993
304,5450913.820184596
486,18689068.612557655
623,0.0
648,39676118.05282171
769,14215138.975993095
918,7864969.111196254
958,9104400.0
995,0.0
1008,0.0
1023,104863900.84570393
1048,133189910.99094323
1061,0.0
1079,0.008586255584385259
2,3, 1, 3, 0,23, 0.00,60.00,Tuesday
9,82855095.96155343
45,13362043.1603184
107,47077200.0
170,218341931.38121728
206,64823759.99999999
279,12842087.04919645
304,5446483.683010165
486,14536002.76277837
623,0.0
648,35114474.46044685
769,11630559.277137496
918,7864969.111196254
958,9104400.0
995,0.0
1008,0.0
1023,109420054.49264023
1048,138982168.61843894
1061,0.0
1079,0.0070286085610555579
2,3, 1, 3, 0,24, 0.00,60.00,Tuesday
9,87170859.34300336
45,13362043.1603184
107,47077200.0
170,169344381.04937429
206,10803960.0
279,16484131.41338774
304,9762247.067588794
486,10387207.324296648
623,0.0
648,27823451.726323394
769,6461427.113188676
918,7864969.111196254
958,9104400.0
995,0.0
1008,0.0
1023,116677601.21216026
1048,148153213.72507764
1061,0.0
1079,0.0038999110435402174
2,4, 1, 4, 0, 1, 0.00,60.00,Wednesday
9,49437182.36578441
45,6681021.5801592
107,20077200.0
170,188494522.58703096
206,10803960.0
279,15067055.584907188
304,5709591.671303019
486,6257276.16375848
623,1569029.3203618078
648,10987724.287117219
769,5178167.567611678
918,7864969.111196254
958,9104400.0
995,0.0
1008,0.0
1023,135052250.77624209
1048,171433286.42327247
1061,0.0
1079,0.0031259231215632367
2,4, 1, 4, 0, 2, 0.00,60.00,Wednesday
9,34132344.2911434
45,2227007.1933864
107,18000000.0
170,12935494.650472258
206,10803960.0
279,12076638.153197186
304,4800937.097757004
486,2131534.650472258
623,0.0
648,0.0
769,0.0
918,0.0
958,9104400.0
995,0.0
1008,0.0
1023,0.0
1048,0.0
1061,0.0
1079,0.0
2,4, 1, 4, 0, 3, 0.00,60.00,Wednesday
9,34221324.969748098
45,2227007.1933864
107,18000000.0
170,10875960.0
206,10803960.0
279,12597333.200594802
304,4889917.7763616959
486,72000.0
623,0.0
648,0.0
769,0.0
918,0.0
958,9104400.0
995,0.0
1008,0.0
1023,0.0
1048,0.0
1061,0.0
1079,0.0
2,4, 1, 4, 0, 4, 0.00,60.00,Wednesday
9,34270903.906295958
45,2227007.1933864
107,18000000.0
170,12935404.32623015
206,10803960.0
279,12886744.541678716
304,4939496.712909557
486,2131444.326230148
623,0.0
648,0.0
769,0.0
918,0.0
958,9104400.0
995,0.0
1008,0.0
1023,0.0
1048,0.0
1061,0.0
1079,0.0
2,4, 1, 4, 0, 5, 0.00,60.00,Wednesday
9,34814705.93236321
45,2227007.1933864
107,18000000.0
170,10875960.0
206,10803960.0
279,15254539.805411965
304,5483298.738976813
486,72000.0
623,0.0
648,0.0
769,0.0
918,0.0
958,9104400.0
995,0.0
1008,0.0
1023,0.0
1048,0.0
1061,0.0
1079,0.0
2,4, 1, 4, 0, 6, 0.00,60.00,Wednesday
9,49272269.928601708
45,6681021.5801592
107,20077200.0
170,204897700.43586529
206,16205939.999999999
279,14460775.928028074
304,5544679.237246242
486,2131465.5960988628
623,5337389.124418313
648,6105143.2238979269
769,0.0
918,7864969.111196254
958,9104400.0
995,0.0
1008,0.0
1023,147016904.89217536
1048,186560294.83976645
1061,0.0
1079,0.0
2,4, 1, 4, 0, 7, 0.00,60.00,Wednesday
9,101387816.32728207
45,13362043.1603184
107,65077200.0
170,210404723.21292532
206,48617819.99999999