Program Version,EnergyPlus, Version 9.2.0-921312fa1d, YMD=2020.12.22 17:48
1,5,Environment Title[],Latitude[deg],Longitude[deg],Time Zone[],Elevation[m]
2,8,Day of Simulation[],Month[],Day of Month[],DST Indicator[1=yes 0=no],Hour[],StartMinute[],EndMinute[],DayType
3,5,Cumulative Day of Simulation[],Month[],Day of Month[],DST Indicator[1=yes 0=no],DayType  ! When Daily Meters Requested
4,2,Cumulative Days of Simulation[],Month[]  ! When Monthly Meters Requested
5,1,Cumulative Days of Simulation[] ! When Run Period Meters Requested
6,1,Calendar Year of Simulation[] ! When Annual Meters Requested
9,1,Electricity:Facility [J] !Hourly
2217,1,Heating:Electricity [J] !Hourly
2125,1,Cooling:Electricity [J] !Hourly
45,1,InteriorLights:Electricity [J] !Hourly
2063,1,ExteriorLights:Electricity [J] !Hourly
457,1,InteriorEquipment:Electricity [J] !Hourly
2088,1,ExteriorEquipment:Electricity [J] !Hourly
2035,1,Fans:Electricity [J] !Hourly
2293,1,Pumps:Electricity [J] !Hourly
2242,1,HeatRejection:Electricity [J] !Hourly
739,1,Gas:Facility [J] !Hourly
2192,1,Heating:Gas [J] !Hourly
763,1,WaterSystems:Gas [J] !Hourly
2163,1,HeatRejection:EnergyTransfer [J] !Hourly
924,1,Heating:EnergyTransfer [J] !Hourly
949,1,Cooling:EnergyTransfer [J] !Hourly
1734,1,WaterSystems:EnergyTransfer [J] !Hourly
1891,1,HeatingCoils:EnergyTransfer [J] !Hourly
1967,1,CoolingCoils:EnergyTransfer [J] !Hourly
End of Data Dictionary
1,RUNPERIOD 1,  41.98, -87.92,  -6.00, 201.00
2,1, 1, 1, 0, 1, 0.00,60.00,Holiday
9,1034905591.2200176
45,134569963.08410803
457,538279852.336432
739,3487733778.1349728
763,8082881.067300533
924,2157478765.492221
949,160778478.00381319
1734,5654775.637016885
1891,2322344765.7548549
1967,698.4821014893023
2035,90374488.1763477
2063,221742000.0
2088,43999912.087912078
2125,0.0
2163,0.0
2192,3479650897.0676724
2217,0.0
2242,0.0
2293,5939375.535217907
2,1, 1, 1, 0, 2, 0.00,60.00,Holiday
9,1020546329.316219
45,134569963.08410803
457,538279852.336432
739,3166724956.917798
763,8083163.249301407
924,2129633916.9384077
949,124103875.55299175
1734,5654775.597017672
1891,2248697044.0149176
1967,972.8098706680571
2035,75312073.48028974
2063,221742000.0
2088,43999912.087912078
2125,0.0
2163,0.0
2192,3158641793.6684968
2217,0.0
2242,0.0
2293,6642528.327477159
2,1, 1, 1, 0, 3, 0.00,60.00,Holiday
9,1042303217.2606189
45,134569963.08410803
457,538279852.336432
739,4221321304.2305109
763,8082627.508690035
924,2815371939.5147588
949,158710113.30632628
1734,5654775.617616233
1891,2959132795.807403
1967,0.0
2035,94140091.85036218
2063,221742000.0
2088,43999912.087912078
2125,0.0
2163,0.0
2192,4213238676.721821
2217,0.0
2242,0.0
2293,9571397.90180472
2,1, 1, 1, 0, 4, 0.00,60.00,Holiday
9,1020555557.6364315
45,134569963.08410803
457,538279852.336432
739,3157082991.2403767
763,8083254.1007299949
924,2136715746.5421818
949,115828187.3412085
1734,5654775.593615314
1891,2265438554.673418
1967,0.0
2035,75312073.48028974
2063,221742000.0
2088,43999912.087912078
2125,0.0
2163,0.0
2192,3148999737.1396467
2217,0.0
2242,0.0
2293,6651756.647689729
2,1, 1, 1, 0, 5, 0.00,60.00,Holiday
9,1086335681.6364589
45,134569963.08410803
457,538279852.336432
739,4250722420.9476735
763,8082937.299272685
924,2827627467.50634
949,151286198.4997683
1734,5654775.660086269
1891,2978769916.6323406
1967,0.0
2035,94140091.85036218
2063,221742000.0
2088,87999824.17582415
2125,0.0
2163,0.0
2192,4242639483.648401
2217,0.0
2242,0.0
2293,9603950.189732386
2,1, 1, 1, 0, 6, 0.00,60.00,Holiday
9,1152592777.299441
45,134569963.08410803
457,538279852.336432
739,3174432967.7954719
763,8094286.822098367
924,2144260016.4457865
949,111189859.56535879
1734,9895854.725782488
1891,2277569728.2116539
1967,0.0
2035,75312073.48028974
2063,221742000.0
2088,175999648.3516483
2125,0.0
2163,0.0
2192,3166338680.9733736
2217,0.0
2242,0.0
2293,6689240.046963132
2,1, 1, 1, 0, 7, 0.00,60.00,Holiday
9,1350440203.1561166
45,134569963.08410803
457,538279852.336432
739,4291501865.352828
763,8083213.21688907
924,2851084909.774119
949,145053405.5524886
1734,5654775.496447129
1891,3006188289.1366565
1967,0.0
2035,94140091.85036218
2063,221742000.0
2088,351999296.7032966
2125,0.0
2163,0.0
2192,4283418652.1359388
2217,0.0
2242,0.0
2293,9708999.181917683
2,1, 1, 1, 0, 8, 0.00,60.00,Holiday
9,1268689142.0492886
45,134569963.08410803
457,538279852.336432
739,3135872456.883754
763,8082268.056163336
924,2121488304.670379
949,107558845.4686833
1734,5654775.6716256919
1891,2257527944.0861656
1967,0.0
2035,75312073.48028974
2063,73914000.0
2088,439999120.8791207
2125,0.0
2163,0.0
2192,3127790188.82759
2217,0.0
2242,0.0
2293,6614132.269338048
2,1, 1, 1, 0, 9, 0.00,60.00,Holiday
9,1214600024.6482993
45,134569963.08410803
457,538279852.336432
739,3600009048.768368
763,8083114.552935065
924,2387100124.7727615
949,170252219.2632568
1734,5654775.429213641
1891,2528052644.5548965
1967,0.0
2035,94140091.85036218
2063,0.0
2088,439999120.8791207
2125,0.0
2163,0.0
2192,3591925934.2154328
2217,0.0
2242,0.0
2293,7610996.498276425
2,1, 1, 1, 0,10, 0.00,60.00,Holiday
9,1060438499.366126
45,134569963.08410803
457,538279852.336432
739,2254094400.6495316
763,8082577.11229132
924,1513383114.4611283
949,149968739.51577194
1734,5654775.682905565
1891,1630763778.1804083
1967,1587.076617983675
2035,75312073.48028974
2063,0.0
2088,307999384.6153846
2125,0.0
2163,0.0
2192,2246011823.53724
2217,0.0
2242,0.0
2293,4277225.849911674
2,1, 1, 1, 0,11, 0.00,60.00,Holiday
9,904083010.7723754
45,134569963.08410803
457,538279852.336432
739,2643632134.813063
763,8083204.207651642
924,1735565817.5702606
949,239440218.4513771
1734,5654775.480503457
1891,1847324321.2549177
1967,0.0
2035,94140091.85036218
2063,0.0
2088,131999736.26373624
2125,0.0
2163,0.0
2192,2635548930.6054117
2217,0.0
2242,0.0
2293,5093367.237736836
2,1, 1, 1, 0,12, 0.00,60.00,Holiday
9,883329195.7188687
45,134569963.08410803
457,538279852.336432
739,1754531865.6052554
763,16108602.142029705
924,1196396847.5181089
949,210335140.23109705
1734,8482163.506097008
1891,1284135861.292388
1967,0.0
2035,75312073.48028974
2063,0.0
2088,131999736.26373624
2125,0.0
2163,0.0
2192,1738423263.4632257
2217,0.0
2242,0.0
2293,3167570.554302785
2,1, 1, 1, 0,13, 0.00,60.00,Holiday
9,903115547.8357532
45,134569963.08410803
457,538279852.336432
739,2365552545.807207
763,8090142.973280333
924,1530387167.1653305
949,214706399.12305177
1734,8482163.480235162
1891,1691956059.2398079
1967,0.0
2035,94140091.85036218
2063,0.0
2088,131999736.26373624
2125,0.0
2163,0.0
2192,2357462402.8339269
2217,0.0
2242,0.0
2293,4125904.301114816
2,1, 1, 1, 0,14, 0.00,60.00,Holiday
9,882946643.9771593
45,134569963.08410803
457,538279852.336432
739,1796662626.6078926
763,24160870.62574292
924,1164295123.0450793
949,151382531.18489418
1734,12723241.68556546
1891,1322480937.816373
1967,0.0
2035,75312073.48028974
2063,0.0
2088,131999736.26373624
2125,0.0
2163,0.0
2192,1772501755.9821497
2217,0.0
2242,0.0
2293,2785018.812593224
2,1, 1, 1, 0,15, 0.00,60.00,Holiday
9,902676174.4308636
45,134569963.08410803
457,538279852.336432
739,2430927214.3571469
763,8090637.151645055
924,1519547455.8482309
949,201169028.33930276
1734,8482163.246720737
1891,1706083870.0751484
1967,0.0
2035,94140091.85036218
2063,0.0
2088,131999736.26373624
2125,0.0
2163,0.0
2192,2422836577.2055017
2217,0.0
2242,0.0
2293,3686530.896225152
2,1, 1, 1, 0,16, 0.00,60.00,Holiday
9,882914220.4207083
45,134569963.08410803
457,538279852.336432
739,1880788443.060775
763,8083253.534123345
924,1203750093.2692044
949,149177976.68912555
1734,5654775.430883389
1891,1367438426.3277226
1967,0.0
2035,75312073.48028974
2063,0.0
2088,131999736.26373624
2125,0.0
2163,0.0
2192,1872705189.5266517
2217,0.0
2242,0.0
2293,2752595.2561423585
2,1, 1, 1, 0,17, 0.00,60.00,Holiday
9,1226879448.0416094
45,134569963.08410803
457,538279852.336432
739,2672254325.706502
763,8082498.200971682
924,1658196157.081211
949,193412101.5709651
1734,5654775.67779856
1891,1850734623.7079223
1967,0.0
2035,94140091.85036218
2063,147828000.0
2088,307999384.6153846
2125,0.0
2163,0.0
2192,2664171827.5055305
2217,0.0
2242,0.0
2293,4062156.1553227074
2,1, 1, 1, 0,18, 0.00,60.00,Holiday
9,1412909571.4508525
45,134569963.08410803
457,538279852.336432
739,2019941722.1307026
763,8083125.964004389
924,1295425479.3189202
949,141082309.06796143
1734,5654775.472576689
1891,1463750633.5798598
1967,0.0
2035,75312073.48028974
2063,221742000.0
2088,439999120.8791207
2125,0.0
2163,0.0
2192,2011858596.1666985
2217,0.0
2242,0.0
2293,3006561.670901816
2,1, 1, 1, 0,19, 0.00,60.00,Holiday
9,1433294780.60687
45,134569963.08410803
457,538279852.336432
739,2886036632.546231
763,8082807.950814184
924,1792472206.8143738
949,186114662.91123734
1734,5654775.683598025
1891,1985326349.0901633
1967,0.0
2035,94140091.85036218
2063,221742000.0
2088,439999120.8791207
2125,0.0
2163,0.0
2192,2877953824.595417
2217,0.0
2242,0.0
2293,4563752.456847023
2,1, 1, 1, 0,20, 0.00,60.00,Holiday
9,1325150550.4141684
45,134569963.08410803
457,538279852.336432
739,2104215701.4994989
763,8083215.087553663
924,1361883490.8234227
949,137467194.9736029
1734,5654775.522476249
1891,1533049102.758981
1967,0.0
2035,75312073.48028974
2063,221742000.0
2088,351999296.7032966
2125,0.0
2163,0.0
2192,2096132486.4119454
2217,0.0
2242,0.0
2293,3247364.8100420387
2,1, 1, 1, 0,21, 0.00,60.00,Holiday
9,1345232450.659849
45,134569963.08410803
457,538279852.336432
739,2843980728.6440045
763,8083117.614091928
924,1772921136.2833198
949,183883158.21763156
1734,5654775.685748085
1891,1972537643.8822256
1967,0.0
2035,94140091.85036218
2063,221742000.0
2088,351999296.7032966
2125,0.0
2163,0.0
2192,2835897611.0299127
2217,0.0
2242,0.0
2293,4501246.685650128
2,1, 1, 1, 0,22, 0.00,60.00,Holiday
9,1237099907.7269128
45,134569963.08410803
457,538279852.336432
739,2097105411.5096553
763,16113880.220305343
924,1346619801.661258
949,136911268.97855649
1734,9895857.297458254
1891,1520386433.9970735
1967,0.0
2035,75312073.48028974
2063,221742000.0
2088,263999472.52747248
2125,0.0
2163,0.0
2192,2080991531.2893496
2217,0.0
2242,0.0
2293,3196546.2986103065
2,1, 1, 1, 0,23, 0.00,60.00,Holiday
9,1169384673.9313884
45,134569963.08410803
457,538279852.336432
739,2918320670.479076
763,8083133.0743432729
924,1813613841.2945886
949,182070931.87853907
1734,5654775.633637572
1891,2015533367.9885798
1967,0.0
2035,94140091.85036218
2063,221742000.0
2088,175999648.3516483
2125,0.0
2163,0.0
2192,2910237537.404733
2217,0.0
2242,0.0
2293,4653118.308837953
2,1, 1, 1, 0,24, 0.00,60.00,Holiday
9,1061301592.6781175
45,134569963.08410803
457,538279852.336432
739,2180532518.937073
763,8082595.7006103559
924,1408622806.4163757
949,135190677.99224089
1734,5654775.577106197
1891,1581899091.5583606
1967,2956.9367736950346
2035,75312073.48028974
2063,221742000.0
2088,87999824.17582415
2125,0.0
2163,0.0
2192,2172449923.2364628
2217,0.0
2242,0.0
2293,3397879.6014635099
2,2, 1, 2, 0, 1, 0.00,60.00,Monday
9,1217254192.732485
45,134569963.08410803
457,717706469.7819098
739,3037303555.8298366
763,8085904.960200489
924,1935654544.2352553
949,233095129.3755554
1734,7083468.948748615
1891,2075917956.2767893
1967,0.0
2035,94140091.85036218
2063,221742000.0
2088,43999912.087912078
2125,0.0
2163,0.0
2192,3029217650.869636
2217,0.0
2242,0.0
2293,5095755.928193037
2,2, 1, 2, 0, 2, 0.00,60.00,Monday
9,1197100654.0450414
45,134569963.08410803
457,717706469.7819098
739,2246708491.0052149
763,8087043.213183665
924,1508678538.890274
949,179661045.67021386
1734,7083468.914548509
1891,1629037722.024339
1967,0.0
2035,75312073.48028974
2063,221742000.0
2088,43999912.087912078
2125,0.0
2163,0.0
2192,2238621447.792031
2217,0.0
2242,0.0
2293,3770235.610821601
2,2, 1, 2, 0, 3, 0.00,60.00,Monday
9,1217491610.2242103
45,134569963.08410803
457,717706469.7819098
739,3056630585.1451189
763,16101806.952457309
924,1980166648.2354084
949,242273311.00221134
1734,7083468.569985323
1891,2111030692.8651417
1967,0.0
2035,94140091.85036218
2063,221742000.0
2088,43999912.087912078
2125,0.0
2163,0.0
2192,3040528778.1926615
2217,0.0
2242,0.0
2293,5333173.419918309
2,2, 1, 2, 0, 4, 0.00,60.00,Monday
9,1197055650.5964
45,134569963.08410803
457,717706469.7819098
739,2220555373.87309
763,8087032.300635688
924,1497702155.8770717
949,181741346.9457787
1734,7083468.52147406
1891,1617645402.7081199
1967,0.0
2035,75312073.48028974
2063,221742000.0
2088,43999912.087912078
2125,0.0
2163,0.0
2192,2212468341.5724546
2217,0.0
2242,0.0
2293,3725232.1621804249
2,2, 1, 2, 0, 5, 0.00,60.00,Monday
9,1261130729.5701686
45,134569963.08410803
457,717706469.7819098
739,2897763507.125456
763,8085967.110576284
924,1883480681.5058289
949,244967472.220177
1734,7083468.951720389
1891,2021676161.6176043
1967,1906.3900377882877
2035,94140091.85036218
2063,221742000.0
2088,87999824.17582415
2125,0.0
2163,0.0
2192,2889677540.0148799
2217,0.0
2242,0.0
2293,4972380.67796427
2,2, 1, 2, 0, 6, 0.00,60.00,Monday
9,1463097435.7043899
45,269139926.16821607
457,717706469.7819098
739,2019682248.1540366
763,16124285.93264096
924,1359870282.1492313
949,199295386.78137339
1734,11333550.116341755
1891,1475800198.6187249
1967,0.0
2035,75312073.48028974
2063,221742000.0
2088,175999648.3516483
2125,0.0
2163,0.0
2192,2003557962.2213958
2217,0.0
2242,0.0
2293,3197317.922325876
2,2, 1, 2, 0, 7, 0.00,60.00,Monday
9,1706989275.2519375
45,269139926.16821607
457,717706469.7819098
739,9336836000.270804
763,16116359.59967938
924,5242572372.859222
949,0.0
1734,9916855.496863042
1891,6313467509.799272
1967,408.89806344239755
2035,118032589.48479796
2063,221742000.0
2088,351999296.7032966
2125,0.0
2163,0.0
2192,9320719640.671124
2217,0.0
2242,0.0
2293,28368993.113717393
2,2, 1, 2, 0, 8, 0.00,60.00,Monday
9,2178624139.395543
45,807419778.5046485
457,717706469.7819098
739,8866489181.061062
763,32333254.61028343
924,4162776920.543677
949,0.0
1734,26917138.130393514
1891,6311595514.023831
1967,0.0
2035,118032589.48479796
2063,73914000.0
2088,439999120.8791207
2125,0.0
2163,0.0
2192,8834155926.450779
2217,0.0
2242,0.0
2293,21552180.745065955
2,2, 1, 2, 0, 9, 0.00,60.00,Monday
9,4611620589.759584
45,2422259335.513945
457,1614839557.0092962
739,7315217270.516888
763,65082842.62241507
924,3007423609.3070695
949,26877583.96881808
1734,49584274.09261285
1891,5168316465.974993
1967,0.0
2035,118032589.48479796
2063,0.0
2088,439999120.8791207
2125,0.0
2163,0.0
2192,7250134427.894474
2217,0.0
2242,0.0
2293,16489986.87242544
2,2, 1, 2, 0,10, 0.00,60.00,Monday
9,4475968786.2659
45,2422259335.513945
457,1614839557.0092962
739,6202470579.67347
763,73314434.60123419
924,2383193844.277659
949,74753972.382003
1734,53834329.23488174
1891,4440236907.502821
1967,0.0
2035,118032589.48479796
2063,0.0
2088,307999384.6153846
2125,0.0
2163,0.0
2192,6129156145.072235
2217,0.0
2242,0.0
2293,12837919.64247731
2,2, 1, 2, 0,11, 0.00,60.00,Monday
9,4295529558.412875
45,2422259335.513945
457,1614839557.0092962
739,5133019136.607508
763,73340641.89147556
924,1772200591.2061809
949,130614092.84542312
1734,55250976.17571183
1891,3681455685.653726
1967,0.0
2035,118032589.48479796
2063,0.0
2088,131999736.26373624
2125,0.0
2163,0.0
2192,5059678494.716032
2217,0.0
2242,0.0
2293,8398340.141100398
2,2, 1, 2, 0,12, 0.00,60.00,Monday
9,4293322198.87973
45,2422259335.513945
457,1614839557.0092962
739,4352526271.384143
763,81794003.10995519
924,1449634666.3296962
949,354710184.70023438
1734,66584378.21611513
1891,3099334712.695128
1967,0.0
2035,118032589.48479796
2063,0.0
2088,131999736.26373624
2125,0.0
2163,0.0
2192,4270732268.2741878
2217,0.0
2242,0.0
2293,6190980.607955379
2,2, 1, 2, 0,13, 0.00,60.00,Monday
9,4113823179.035215
45,2422259335.513945
457,1435412939.5638197
739,4395430203.226604
763,106826860.3061326
924,1337573870.9330297
949,324835672.8573906
1734,80751534.30489467
1891,3035941366.8960349
1967,0.0
2035,118032589.48479796
2063,0.0
2088,131999736.26373624
2125,0.0
2163,0.0
2192,4288603342.9204719
2217,0.0
2242,0.0
2293,6118578.208918511
2,2, 1, 2, 0,14, 0.00,60.00,Monday
9,4291600771.225629
45,2422259335.513945
457,1614839557.0092962
739,3584726029.327813
763,98453641.68429478
924,1155375042.9876006
949,760205830.3304225
1734,76501461.9566983
1891,2559159694.4406826
1967,0.0
2035,118032589.48479796
2063,0.0
2088,131999736.26373624
2125,0.0
2163,0.0
2192,3486272387.643518
2217,0.0
2242,0.0
2293,4469552.953853613
2,2, 1, 2, 0,15, 0.00,60.00,Monday
9,4291421723.879498
45,2422259335.513945
457,1614839557.0092962
739,3610237008.488279
763,65053310.30099335
924,1130521529.7104939
949,912303360.4965643
1734,48167580.72420173
1891,2531668693.485359
1967,0.0
2035,118032589.48479796
2063,0.0
2088,131999736.26373624
2125,0.0
2163,0.0
2192,3545183698.1872856
2217,0.0
2242,0.0
2293,4290505.607723761
2,2, 1, 2, 0,16, 0.00,60.00,Monday
9,4290976934.1320335
45,2422259335.513945
457,1614839557.0092962
739,3310084975.0812075
763,56896839.896785359
924,1092619491.4636112
949,1034374626.8305549
1734,46750893.31693246
1891,2332673533.863749
1967,0.0
2035,118032589.48479796
2063,0.0
2088,131999736.26373624
2125,0.0
2163,0.0
2192,3253188135.184422
2217,0.0
2242,0.0
2293,3845715.86025891
2,2, 1, 2, 0,17, 0.00,60.00,Monday
9,4614482584.609891
45,2422259335.513945
457,1614839557.0092962
739,3119607290.0567619
763,81686736.88278762
924,1079337149.4589756
949,1141687008.373972
1734,62334412.5704313
1891,2166660255.982017
1967,0.0
2035,118032589.48479796
2063,147828000.0
2088,307999384.6153846
2125,0.0
2163,0.0
2192,3037920553.173974
2217,0.0
2242,0.0
2293,3523717.98646836
2,2, 1, 2, 0,18, 0.00,60.00,Monday
9,4103431307.310978
45,1883979483.1775125
457,1435412939.5638197
739,3669673667.7758939
763,48619563.98837585
924,1176301517.940405
949,966156458.534915
1734,36834038.756479699
1891,2534682122.875174
1967,0.0
2035,118032589.48479796
2063,221742000.0
2088,439999120.8791207
2125,0.0
2163,0.0
2192,3621054103.7875177
2217,0.0
2242,0.0
2293,4265174.205727809
2,2, 1, 2, 0,19, 0.00,60.00,Monday
9,3207398018.4735939
45,1345699630.8410807
457,1076559704.672864
739,4286557643.6697895
763,40435535.68501753
924,1282425846.1128503
949,630902954.3328219
1734,29750533.709755668
1891,2960519568.7863
1967,0.0
2035,118032589.48479796
2063,221742000.0
2088,439999120.8791207
2125,0.0
2163,0.0
2192,4246122107.9847719
2217,0.0
2242,0.0
2293,5364972.595730085
2,2, 1, 2, 0,20, 0.00,60.00,Monday
9,3119066736.1614286
45,1345699630.8410807
457,1076559704.672864
739,3974264077.1340324
763,24224073.677559128
924,1237768899.6228808
949,648731993.2971823
1734,21250396.605360129
1891,2810705016.375379
1967,0.0
2035,118032589.48479796
2063,221742000.0
2088,351999296.7032966
2125,0.0
2163,0.0
2192,3950040003.4564735
2217,0.0
2242,0.0
2293,5033514.45938885
2,2, 1, 2, 0,21, 0.00,60.00,Monday
9,2402428920.6203038
45,807419778.5046485
457,897133087.2273873
739,4498098440.97471
763,32303844.803605629
924,1320851742.3078738
949,378236687.12949457
1734,24083786.774676496
1891,3104436359.0320327
1967,0.0
2035,118032589.48479796
2063,221742000.0
2088,351999296.7032966
2125,0.0
2163,0.0
2192,4465794596.171104
2217,0.0
2242,0.0
2293,6102168.700174449
2,2, 1, 2, 0,22, 0.00,60.00,Monday
9,2314266930.9687187
45,807419778.5046485
457,897133087.2273873
739,4271234264.7736508
763,16121745.095924937
924,1287856020.8604115
949,373507476.43551966
1734,11333547.438517549
1891,3019148764.8647205
1967,0.0
2035,118032589.48479796
2063,221742000.0
2088,263999472.52747248
2125,0.0
2163,0.0
2192,4255112519.6777265
2217,0.0
2242,0.0
2293,5940003.224413086
2,2, 1, 2, 0,23, 0.00,60.00,Monday
9,1384597088.4945896
45,269139926.16821607
457,717706469.7819098
739,8087034.040560848
763,8087034.040560848
924,0.0
949,0.0
1734,7083468.972996624
1891,0.0
1967,0.0
2035,0.0
2063,221742000.0
2088,175999648.3516483
2125,0.0
2163,0.0
2192,0.0
2217,0.0
2242,0.0
2293,9044.192815580618
2,2, 1, 2, 0,24, 0.00,60.00,Monday
9,1166715130.7988549
45,134569963.08410803
457,717706469.7819098
739,88560946.44442919
763,16100809.50773866
924,82665995.18738732
949,37618768.11885147
1734,7083468.338851956
1891,40122231.30808655
1967,0.0
2035,4585540.751769383
2063,221742000.0
2088,87999824.17582415
2125,0.0
2163,0.0
2192,72460136.93669053
2217,0.0
2242,0.0
2293,111333.00524318236
2,3, 1, 3, 0, 1, 0.00,60.00,Tuesday
9,1171903639.6996928
45,134569963.08410803
457,717706469.7819098
739,372041680.96211209
763,8087041.8923055999
924,289061776.8958015
949,509712731.33246037
1734,7098184.018288512
1891,321840555.2836579
1967,0.0
2035,53378457.24262013
2063,221742000.0
2088,43999912.087912078
2125,0.0
2163,0.0
2192,363954639.06980648
2217,0.0
2242,0.0
2293,506837.5031426443
2,3, 1, 3, 0, 2, 0.00,60.00,Tuesday
9,1189456124.6323333
45,134569963.08410803
457,717706469.7819098
739,636194306.0400212
763,8087070.38783355
924,444601945.2247636
949,638055199.7998386
1734,7098184.02556553
1891,510375338.8948455
1967,0.0
2035,70661771.79551915
2063,221742000.0
2088,43999912.087912078
2125,0.0
2163,0.0
2192,628107235.6521877
2217,0.0
2242,0.0
2293,776007.8828841269
2,3, 1, 3, 0, 3, 0.00,60.00,Tuesday
9,1203921757.2930005
45,134569963.08410803
457,717706469.7819098
739,890339725.1580027
763,8177165.687628436
924,525584333.96722748
949,736318537.7905858
1734,7098184.027788723
1891,659180691.756103
1967,0.0
2035,84888059.18057189
2063,221742000.0
2088,43999912.087912078
2125,0.0
2163,0.0
2192,882162559.4703744
2217,0.0
2242,0.0
2293,1015353.1584985458
2,3, 1, 3, 0, 4, 0.00,60.00,Tuesday
9,1190936360.186712
45,134569963.08410803
457,717706469.7819098
739,977746508.1656932
763,16011840.427835126
924,586589938.8823836
949,611202835.6280267
1734,7098184.025607139
1891,671649364.2092993
1967,0.0
2035,71820299.65839921
2063,221742000.0
2088,43999912.087912078
2125,0.0
2163,0.0
2192,961734667.737858
2217,0.0
2242,0.0
2293,1097715.5743827807
2,3, 1, 3, 0, 5, 0.00,60.00,Tuesday
9,1256141324.7825826
45,134569963.08410803
457,717706469.7819098
739,1308372549.6341148
763,8086897.422412382
924,738647531.945174
949,769670639.1839655
1734,7098184.029262283
1891,898751251.2531122
1967,0.0
2035,92611578.26643907
2063,221742000.0
2088,87999824.17582415
2125,0.0
2163,0.0
2192,1300285652.2117024
2217,0.0
2242,0.0
2293,1511489.474301534
2,3, 1, 3, 0, 6, 0.00,60.00,Tuesday
9,1463214918.3787316
45,269139926.16821607
457,717706469.7819098
739,1435227237.467769
763,16124558.410284985
924,837405194.9643725
949,628863249.8877702
1734,11357094.430764135
1891,936033426.094088
1967,0.0
2035,76840587.06421288
2063,221742000.0
2088,175999648.3516483
2125,0.0
2163,0.0
2192,1419102679.057484
2217,0.0
2242,0.0
2293,1786287.0127448473
2,3, 1, 3, 0, 7, 0.00,60.00,Tuesday
9,1697455750.4071859
45,269139926.16821607
457,717706469.7819098
739,7613719166.623896
763,16115815.980350789
924,3408399315.086988
949,35578251.71790131
1734,9937457.45732175
1891,5125716853.711309
1967,780.6723888624638
2035,118032589.48479796
2063,221742000.0
2088,351999296.7032966
2125,0.0
2163,0.0
2192,7597603350.643545
2217,0.0
2242,0.0
2293,18835468.268965458
2,3, 1, 3, 0, 8, 0.00,60.00,Tuesday
9,2169843380.9310019
45,807419778.5046485
457,717706469.7819098
739,7032937899.878597
763,32334736.35935145
924,2390429340.5973608
949,57855761.28906439
1734,26973057.903330156
1891,5080038661.851578
1967,0.0
2035,118032589.48479796
2063,73914000.0
2088,439999120.8791207
2125,0.0
2163,0.0
2192,7000603163.519245
2217,0.0
2242,0.0
2293,12771422.280524722
2,3, 1, 3, 0, 9, 0.00,60.00,Tuesday
9,4601210871.486149
45,2422259335.513945
457,1614839557.0092962
739,4484188378.9337
763,65085207.63876038
924,1465244977.8978236
949,1008431199.5938948
1734,49687267.68990165
1891,3305944025.6430637
1967,0.0
2035,118032589.48479796
2063,0.0
2088,439999120.8791207
2125,0.0
2163,0.0
2192,4419103171.294939
2217,0.0
2242,0.0
2293,6080268.598989451
2,3, 1, 3, 0,10, 0.00,60.00,Tuesday
9,4468378380.359148
45,2422259335.513945
457,1614839557.0092962
739,4181033218.52392
763,73319564.0904966
924,1193997270.0617917
949,1182202167.9137316
1734,53946179.90863312
1891,2934585104.841418
1967,0.0
2035,118032589.48479796
2063,0.0
2088,307999384.6153846
2125,0.0
2163,0.0
2192,4107713654.4334237
2217,0.0
2242,0.0
2293,5247513.735725686
2,3, 1, 3, 0,11, 0.00,60.00,Tuesday
9,4291631389.1036589
45,2422259335.513945
457,1614839557.0092962
739,3671555963.214694
763,65195975.512908969
924,994533724.3898158
949,1316850197.7730575
1734,55365726.42625147
1891,2576856673.6126296
1967,0.0
2035,118032589.48479796
2063,0.0
2088,131999736.26373624
2125,0.0
2163,0.0
2192,3606359987.701785
2217,0.0
2242,0.0
2293,4500170.831883629
2,3, 1, 3, 0,12, 0.00,60.00,Tuesday
9,4291015996.7742826
45,2422259335.513945
457,1614839557.0092962
739,3251236120.492443
763,89974281.32208659
924,849638687.0378069
949,1434919774.0134605
1734,66722668.65699116
1891,2256619655.754413
1967,0.0
2035,118032589.48479796
2063,0.0
2088,131999736.26373624
2125,0.0
2163,0.0
2192,3161261839.170357
2217,0.0
2242,0.0
2293,3884778.502507883
2,3, 1, 3, 0,13, 0.00,60.00,Tuesday
9,4111572068.991631
45,2422259335.513945
457,1435412939.5638197
739,3305287943.6532008
763,106827622.69348502
924,825363875.800968
949,1318409948.4852534
1734,80919290.22325687
1891,2286394684.186813
1967,0.0
2035,118032589.48479796
2063,0.0
2088,131999736.26373624
2125,0.0
2163,0.0
2192,3198460320.9597156
2217,0.0
2242,0.0
2293,3867468.165333956
2,3, 1, 3, 0,14, 0.00,60.00,Tuesday
9,4290373529.159223
45,2422259335.513945
457,1614839557.0092962
739,2813965614.43849
763,98455768.77964895
924,665622387.454104
949,1513602856.7297567
1734,76660382.14715767
1891,1934072197.9553109
1967,0.0
2035,118032589.48479796
2063,0.0
2088,131999736.26373624
2125,0.0
2163,0.0
2192,2715509845.6588408
2217,0.0
2242,0.0
2293,3242310.88744885
2,3, 1, 3, 0,15, 0.00,60.00,Tuesday
9,4290215358.770267
45,2422259335.513945
457,1614839557.0092962
739,2695254999.645057
763,65058564.714476589
924,627646017.6245926
949,1548798679.4600144
1734,48267640.52305044
1891,1871356473.6007896
1967,0.0
2035,118032589.48479796
2063,0.0
2088,131999736.26373624
2125,0.0
2163,0.0
2192,2630196434.9305808
2217,0.0
2242,0.0
2293,3084140.4984925587
2,3, 1, 3, 0,16, 0.00,60.00,Tuesday
9,4290138504.0759079
45,2422259335.513945
457,1614839557.0092962
739,2635399620.512108
763,56898621.82006338
924,604518206.3865323
949,1578023034.2810853
1734,46848012.52593433
1891,1832463304.549175
1967,0.0
2035,118032589.48479796
2063,0.0
2088,131999736.26373624
2125,0.0
2163,0.0
2192,2578500998.6920449
2217,0.0
2242,0.0
2293,3007285.804132118
2,3, 1, 3, 0,17, 0.00,60.00,Tuesday
9,4614038148.159395
45,2422259335.513945
457,1614839557.0092962
739,2706896152.9093124
763,81691326.82921979
924,646581114.1454617
949,1604732736.1068142
1734,62463874.09226246
1891,1860654916.2731944
1967,0.0
2035,118032589.48479796
2063,147828000.0
2088,307999384.6153846
2125,0.0
2163,0.0
2192,2625204826.080093
2217,0.0
2242,0.0
2293,3079281.535972343
2,3, 1, 3, 0,18, 0.00,60.00,Tuesday
9,4102483801.643301
45,1883979483.1775125
457,1435412939.5638197
739,2888357689.2127315
763,48622093.88564471
924,750108726.9481274
949,1545613462.2685579
1734,36910556.878786157
1891,2007740268.6415272
1967,0.0
2035,118032589.48479796
2063,221742000.0
2088,439999120.8791207
2125,0.0
2163,0.0
2192,2839735595.327086
2217,0.0
2242,0.0
2293,3317668.5380509675
2,3, 1, 3, 0,19, 0.00,60.00,Tuesday
9,3205866147.5562689
45,1345699630.8410807
457,1076559704.672864
739,3291208586.535062
763,40440416.09935713
924,877983810.7409245
949,1374846502.9154
1734,29812326.321093505
1891,2296192369.806108
1967,0.0
2035,118032589.48479796
2063,221742000.0
2088,439999120.8791207
2125,0.0
2163,0.0
2192,3250768170.435704
2217,0.0
2242,0.0
2293,3833101.6784054425
2,3, 1, 3, 0,20, 0.00,60.00,Tuesday
9,3118010417.310333
45,1345699630.8410807
457,1076559704.672864
739,3389020020.101765
763,24225410.350487785
924,892109004.9019845
949,1306712136.455286
1734,21294538.305989896
1891,2386777270.238871
1967,0.0
2035,118032589.48479796
2063,221742000.0
2088,351999296.7032966
2125,0.0
2163,0.0
2192,3364794609.7512776
2217,0.0
2242,0.0
2293,3977195.608292836
2,3, 1, 3, 0,21, 0.00,60.00,Tuesday
9,2401227366.839075
45,807419778.5046485
457,897133087.2273873
739,4077420211.056081
763,32305860.117217564
924,1021323596.0075814
949,977319904.1655346
1734,24133808.78617586
1891,2843845147.9432108
1967,0.0
2035,118032589.48479796
2063,221742000.0
2088,351999296.7032966
2125,0.0
2163,0.0
2192,4045114350.938863
2217,0.0
2242,0.0
2293,4900614.918946325
2,3, 1, 3, 0,22, 0.00,60.00,Tuesday
9,2313448410.686916
45,807419778.5046485
457,897133087.2273873
739,4180085502.2000467
763,16122699.242921303
924,1061529717.9829508
949,916696966.0642369
1734,11357091.909654959
1891,2947135371.339509
1967,0.0
2035,118032589.48479796
2063,221742000.0
2088,263999472.52747248
2125,0.0
2163,0.0
2192,4163962802.9571249
2217,0.0
2242,0.0
2293,5121482.942610545
2,3, 1, 3, 0,23, 0.00,60.00,Tuesday
9,1386975473.3010286
45,269139926.16821607
457,717706469.7819098
739,84259114.59498441
763,16101921.150475983
924,45471335.00588987
949,21181461.50108242
1734,7098184.0149544789
1891,24553412.63472738
1967,0.0
2035,2292770.3758846914
2063,221742000.0
2088,175999648.3516483
2125,0.0
2163,0.0
2192,68157193.44450844
2217,0.0
2242,0.0
2293,94658.62336975138
2,3, 1, 3, 0,24, 0.00,60.00,Tuesday
9,1181052333.071189
45,134569963.08410803
457,717706469.7819098
739,239161214.9632588
763,8086368.630033036
924,176034364.34947349
949,206178602.17742274
1734,7098183.657290827
1891,139819155.15173657
1967,0.0
2035,18717895.11087321
2063,221742000.0
2088,87999824.17582415
2125,0.0
2163,0.0
2192,231074846.3332258
2217,0.0
2242,0.0
2293,316180.91847351219
2,4, 1, 4, 0, 1, 0.00,60.00,Wednesday
9,1205417831.2224358
45,134569963.08410803
457,717706469.7819098
739,768591529.7038152
763,8087014.0184039459
924,434190560.86854949
949,928243398.3219221
1734,7112610.359650767
1891,587425192.5623152
1967,0.0
2035,86416572.76449502
2063,221742000.0
2088,43999912.087912078
2125,0.0
2163,0.0
2192,760504515.6854112
2217,0.0
2242,0.0
2293,982913.5040109243
2,4, 1, 4, 0, 2, 0.00,60.00,Wednesday
9,1188216119.6127966
45,134569963.08410803
457,717706469.7819098
739,854387870.0162901
763,8087053.509618991