Program Version,EnergyPlus, Version 9.2.0-921312fa1d, YMD=2020.12.22 17:58
1,5,Environment Title[],Latitude[deg],Longitude[deg],Time Zone[],Elevation[m]
2,8,Day of Simulation[],Month[],Day of Month[],DST Indicator[1=yes 0=no],Hour[],StartMinute[],EndMinute[],DayType
3,5,Cumulative Day of Simulation[],Month[],Day of Month[],DST Indicator[1=yes 0=no],DayType  ! When Daily Meters Requested
4,2,Cumulative Days of Simulation[],Month[]  ! When Monthly Meters Requested
5,1,Cumulative Days of Simulation[] ! When Run Period Meters Requested
6,1,Calendar Year of Simulation[] ! When Annual Meters Requested
9,1,Electricity:Facility [J] !Hourly
695,1,Heating:Electricity [J] !Hourly
798,1,Cooling:Electricity [J] !Hourly
45,1,InteriorLights:Electricity [J] !Hourly
760,1,ExteriorLights:Electricity [J] !Hourly
182,1,InteriorEquipment:Electricity [J] !Hourly
629,1,Fans:Electricity [J] !Hourly
709,1,Gas:Facility [J] !Hourly
733,1,Heating:Gas [J] !Hourly
294,1,Heating:EnergyTransfer [J] !Hourly
319,1,Cooling:EnergyTransfer [J] !Hourly
682,1,HeatingCoils:EnergyTransfer [J] !Hourly
785,1,CoolingCoils:EnergyTransfer [J] !Hourly
End of Data Dictionary
1,RUNPERIOD 1,  41.98, -87.92,  -6.00, 201.00
2,1, 1, 1, 0, 1, 0.00,60.00,Holiday
9,77598898.35644445
45,13347692.9325
182,6462622.566179999
294,346525782.8194622
319,0.0
629,20481319.082708729
682,330542055.7390073
695,1325263.77505573
709,422072810.2101943
733,422072810.2101943
760,35982000.0
785,0.0
798,0.0
2,1, 1, 1, 0, 2, 0.00,60.00,Holiday
9,79384523.71541837
45,13347692.9325
182,6462622.566179999
294,367848534.1929033
319,0.0
629,21752806.13616484
682,350338751.9434341
695,1839402.0805735444
709,446794038.2857187
733,446794038.2857187
760,35982000.0
785,0.0
798,0.0
2,1, 1, 1, 0, 3, 0.00,60.00,Holiday
9,87584488.1693473
45,13347692.9325
182,6462622.566179999
294,500796848.0740648
319,0.0
629,29717259.330515468
682,479648228.2406086
695,2074913.3401518444
709,612273480.6416112
733,612273480.6416112
760,35982000.0
785,0.0
798,0.0
2,1, 1, 1, 0, 4, 0.00,60.00,Holiday
9,80480490.22127745
45,13347692.9325
182,6462622.566179999
294,379843021.5386827
319,0.0
629,22468832.561701433
682,361667420.0238665
695,2219342.1608960258
709,460830869.0550903
733,460830869.0550903
760,35982000.0
785,0.0
798,0.0
2,1, 1, 1, 0, 5, 0.00,60.00,Holiday
9,88492996.57298753
45,13347692.9325
182,6462622.566179999
294,512119200.1192168
319,0.0
629,30390800.586467074
682,490365326.5856142
695,2309880.487840459
709,625712110.3817613
733,625712110.3817613
760,35982000.0
785,0.0
798,0.0
2,1, 1, 1, 0, 6, 0.00,60.00,Holiday
9,80943491.94658809
45,13347692.9325
182,6462622.566179999
294,385154547.6389917
319,0.0
629,22783603.535563854
682,366682356.6927834
695,2367572.912344242
709,467070235.6159475
733,467070235.6159475
760,35982000.0
785,0.0
798,0.0
2,1, 1, 1, 0, 7, 0.00,60.00,Holiday
9,89086099.27915335
45,13347692.9325
182,6462622.566179999
294,520145628.2351521
319,0.0
629,30867161.642301356
682,497976038.1121623
695,2426622.1381719915
709,635319764.0692182
733,635319764.0692182
760,35982000.0
785,0.0
798,0.0
2,1, 1, 1, 0, 8, 0.00,60.00,Holiday
9,56986444.34378935
45,13347692.9325
182,6462622.566179999
294,386864892.8547874
319,0.0
629,22911167.195690507
682,368302152.5793959
695,2270961.649418843
709,469270757.60253468
733,469270757.60253468
760,11994000.0
785,0.0
798,0.0
2,1, 1, 1, 0, 9, 0.00,60.00,Holiday
9,136206071.77957816
45,26695385.865
182,12925245.132359999
294,752146437.6757368
319,0.0
629,89005477.69531496
682,1085540174.6371029
695,7579963.086903177
709,1382000271.2182048
733,1382000271.2182048
760,0.0
785,0.0
798,0.0
2,1, 1, 1, 0,10, 0.00,60.00,Holiday
9,132431680.38775382
45,26695385.865
182,12925245.132359999
294,499940278.5348172
319,0.0
629,89005477.69531496
682,793840063.556743
695,3805571.695078872
709,1012864733.1559795
733,1012864733.1559795
760,0.0
785,0.0
798,0.0
2,1, 1, 1, 0,11, 0.00,60.00,Holiday
9,223436733.26594
45,106781543.46
182,25850490.264719998
294,378098562.5484406
319,0.0
629,89005477.69531496
682,646578288.1852348
695,1799221.8459050123
709,826639828.6401663
733,826639828.6401663
760,0.0
785,0.0
798,0.0
2,1, 1, 1, 0,12, 0.00,60.00,Holiday
9,222553831.76805736
45,106781543.46
182,25850490.264719998
294,317780620.76326778
319,0.0
629,89005477.69531496
682,563673647.025443
695,916320.3480223792
709,721483752.1505393
733,721483752.1505393
760,0.0
785,0.0
798,0.0
2,1, 1, 1, 0,13, 0.00,60.00,Holiday
9,284936395.5262376
45,160172315.18999998
182,34467320.35296
294,250574958.04687885
319,0.0
629,89005477.69531496
682,478503061.792544
695,1291282.2879626486
709,611809973.7238221
733,611809973.7238221
760,0.0
785,0.0
798,0.0
2,1, 1, 1, 0,14, 0.00,60.00,Holiday
9,285503955.2330538
45,160172315.18999998
182,34467320.35296
294,223079333.8961362
319,0.0
629,89005477.69531496
682,436343737.9598502
695,1858841.994778843
709,557031917.9039375
733,557031917.9039375
760,0.0
785,0.0
798,0.0
2,1, 1, 1, 0,15, 0.00,60.00,Holiday
9,285747457.03417506
45,160172315.18999998
182,34467320.35296
294,207259742.65965844
319,0.0
629,89005477.69531496
682,414440799.6618974
695,2102343.7959000847
709,528639045.98204788
733,528639045.98204788
760,0.0
785,0.0
798,0.0
2,1, 1, 1, 0,16, 0.00,60.00,Holiday
9,286079822.12067416
45,160172315.18999998
182,34467320.35296
294,202209623.64960347
319,0.0
629,89005477.69531496
682,409472071.6414089
695,2434708.8823991857
709,521842772.7679611
733,521842772.7679611
760,0.0
785,0.0
798,0.0
2,1, 1, 1, 0,17, 0.00,60.00,Holiday
9,310434051.41939958
45,160172315.18999998
182,34467320.35296
294,202832355.96081148
319,0.0
629,89005477.69531496
682,410130264.3844644
695,2800938.181124635
709,522217084.87607648
733,522217084.87607648
760,23988000.0
785,0.0
798,0.0
2,1, 1, 1, 0,18, 0.00,60.00,Holiday
9,259377917.45115418
45,106781543.46
182,25850490.264719998
294,443296597.6417586
319,0.0
629,89005477.69531496
682,655260366.5191344
695,1758406.0311192107
709,837823026.2666861
733,837823026.2666861
760,35982000.0
785,0.0
798,0.0
2,1, 1, 1, 0,19, 0.00,60.00,Holiday
9,197835013.44894598
45,53390771.73
182,17233660.17648
294,492268650.25981679
319,0.0
629,89005477.69531496
682,711504814.9593723
695,2223103.84715099
709,909335527.0669502
733,909335527.0669502
760,35982000.0
785,0.0
798,0.0
2,1, 1, 1, 0,20, 0.00,60.00,Holiday
9,58609251.68860327
45,13347692.9325
182,6462622.566179999
294,52420707.40533762
319,0.0
629,2816936.1899232778
682,50194468.25423661
695,0.0
709,64351882.37722643
733,64351882.37722643
760,35982000.0
785,0.0
798,0.0
2,1, 1, 1, 0,21, 0.00,60.00,Holiday
9,64621078.08702353
45,13347692.9325
182,6462622.566179999
294,152213825.01249189
319,0.0
629,8805957.655391667
682,144633774.22782649
695,22804.932951854356
709,185398678.58317263
733,185398678.58317263
760,35982000.0
785,0.0
798,0.0
2,1, 1, 1, 0,22, 0.00,60.00,Holiday
9,66523589.68622874
45,13347692.9325
182,6462622.566179999
294,175664315.7432238
319,0.0
629,10350916.588015497
682,167468796.2315135
695,380357.5995332401
709,214215946.9640772
733,214215946.9640772
760,35982000.0
785,0.0
798,0.0
2,1, 1, 1, 0,23, 0.00,60.00,Holiday
9,68045256.15419545
45,13347692.9325
182,6462622.566179999
294,198917666.6647049
319,0.0
629,11592504.129061746
682,189172801.1650922
695,660436.5264537014
709,241682518.7674852
733,241682518.7674852
760,35982000.0
785,0.0
798,0.0
2,1, 1, 1, 0,24, 0.00,60.00,Holiday
9,69246498.28576613
45,13347692.9325
182,6462622.566179999
294,213235179.79105283
319,0.0
629,12607178.680357337
682,203549689.16634447
695,847004.1067287909
709,259875237.25591756
733,259875237.25591756
760,35982000.0
785,0.0
798,0.0
2,2, 1, 2, 0, 1, 0.00,60.00,Tuesday
9,73604219.51223752
45,13347692.9325
182,8616830.08824
294,249420195.30953569
319,0.0
629,14609064.70478193
682,237594135.65976946
695,1048631.786715601
709,303263466.5039152
733,303263466.5039152
760,35982000.0
785,0.0
798,0.0
2,2, 1, 2, 0, 2, 0.00,60.00,Tuesday
9,74649346.54637075
45,13347692.9325
182,8616830.08824
294,261121259.37948299
319,0.0
629,15509206.157184724
682,249778712.26493056
695,1193617.3684460326
709,318698839.6108776
733,318698839.6108776
760,35982000.0
785,0.0
798,0.0
2,2, 1, 2, 0, 3, 0.00,60.00,Tuesday
9,75044624.36029664
45,13347692.9325
182,8616830.08824
294,269409087.1049292
319,0.0
629,15805211.674653708
682,256863722.0630845
695,1292889.6649029325
709,327654913.331002
733,327654913.331002
760,35982000.0
785,0.0
798,0.0
2,2, 1, 2, 0, 4, 0.00,60.00,Tuesday
9,75457555.99849476
45,13347692.9325
182,8616830.08824
294,271371627.98228099
319,0.0
629,16158615.196119633
682,259597914.1316048
695,1352417.7816351359
709,331083969.67944827
733,331083969.67944827
760,35982000.0
785,0.0
798,0.0
2,2, 1, 2, 0, 5, 0.00,60.00,Tuesday
9,74385654.06799412
45,13347692.9325
182,8616830.08824
294,257469897.67078353
319,0.0
629,15108094.027897738
682,245411739.861103
695,1331037.019356385
709,312923978.0022393
733,312923978.0022393
760,35982000.0
785,0.0
798,0.0
2,2, 1, 2, 0, 6, 0.00,60.00,Tuesday
9,73746311.93263723
45,13347692.9325
182,8616830.08824
294,244043913.31292299
319,0.0
629,14508254.03783342
682,233081276.7766282
695,1291534.874063811
709,297166335.7725184
733,297166335.7725184
760,35982000.0
785,0.0
798,0.0
2,2, 1, 2, 0, 7, 0.00,60.00,Tuesday
9,154384284.8176472
45,13347692.9325
182,8616830.08824
294,600701240.5036078
319,0.0
629,89005477.69531496
682,810693170.7154195
695,7432284.101592255
709,1029821649.5049069
733,1029821649.5049069
760,35982000.0
785,0.0
798,0.0
2,2, 1, 2, 0, 8, 0.00,60.00,Tuesday
9,177041442.38259299
45,53390771.73
182,17233660.17648
294,416005014.2528142
319,0.0
629,89005477.69531496
682,616671336.1117482
695,5417532.780798016
709,783658722.2191668
733,783658722.2191668
760,11994000.0
785,0.0
798,0.0
2,2, 1, 2, 0, 9, 0.00,60.00,Tuesday
9,257065619.50708667
45,133476929.325
182,30158905.30883999
294,328099520.62631949
319,0.0
629,89005477.69531496
682,524110134.69987818
695,4424307.177931704
709,666263881.438393
733,666263881.438393
760,0.0
785,0.0
798,0.0
2,2, 1, 2, 0,10, 0.00,60.00,Tuesday
9,371350239.8558478
45,240258472.78500004
182,38775735.39708
294,223723962.73624323
319,0.0
629,89005477.69531496
682,411717436.1028593
695,3310553.9784527898
709,523598566.8261622
733,523598566.8261622
760,0.0
785,0.0
798,0.0
2,2, 1, 2, 0,11, 0.00,60.00,Tuesday
9,370687343.02563497
45,240258472.78500004
182,38775735.39708
294,177016151.1790444
319,0.0
629,89005477.69531496
682,353051754.05597087
695,2647657.1482399546
709,449236021.67657807
733,449236021.67657807
760,0.0
785,0.0
798,0.0
2,2, 1, 2, 0,12, 0.00,60.00,Tuesday
9,370158951.33385619
45,240258472.78500004
182,38775735.39708
294,133494919.48265073
319,0.0
629,89005477.69531496
682,303410660.4664879
695,2119265.4564612174
709,386271019.2436239
733,386271019.2436239
760,0.0
785,0.0
798,0.0
2,2, 1, 2, 0,13, 0.00,60.00,Tuesday
9,369855305.8702115
45,240258472.78500004
182,38775735.39708
294,113777037.08573886
319,0.0
629,89005477.69531496
682,283750792.3445992
695,1815619.992816505
709,361455349.1689521
733,361455349.1689521
760,0.0
785,0.0
798,0.0
2,2, 1, 2, 0,14, 0.00,60.00,Tuesday
9,369809240.9363771
45,240258472.78500004
182,38775735.39708
294,110008408.96496915
319,0.0
629,89005477.69531496
682,293524896.44484636
695,1769555.0589821302
709,374045309.4690566
733,374045309.4690566
760,0.0
785,0.0
798,0.0
2,2, 1, 2, 0,15, 0.00,60.00,Tuesday
9,369943977.025506
45,240258472.78500004
182,38775735.39708
294,112467310.31882179
319,0.0
629,89005477.69531496
682,310314895.5987525
695,1904291.1481110452
709,395398210.8341557
733,395398210.8341557
760,0.0
785,0.0
798,0.0
2,2, 1, 2, 0,16, 0.00,60.00,Tuesday
9,369994803.9137136
45,240258472.78500004
182,38775735.39708
294,97844693.27756366
319,0.0
629,89005477.69531496
682,289662961.1265092
695,1955118.036318633
709,368856209.08998796
733,368856209.08998796
760,0.0
785,0.0
798,0.0
2,2, 1, 2, 0,17, 0.00,60.00,Tuesday
9,394180281.9395339
45,240258472.78500004
182,38775735.39708
294,100812751.22736576
319,0.0
629,89005477.69531496
682,285958045.03981867
695,2152596.062138885
709,363853139.71497419
733,363853139.71497419
760,23988000.0
785,0.0
798,0.0
2,2, 1, 2, 0,18, 0.00,60.00,Tuesday
9,406495292.54168727
45,240258472.78500004
182,38775735.39708
294,124820784.21561738
319,0.0
629,89005477.69531496
682,319388357.1875472
695,2473606.6642922449
709,406300962.2093012
733,406300962.2093012
760,35982000.0
785,0.0
798,0.0
2,2, 1, 2, 0,19, 0.00,60.00,Tuesday
9,322301606.35358425
45,160172315.18999998
182,34467320.35296
294,147625809.36887048
319,0.0
629,89005477.69531496
682,339508380.4828932
695,2674493.1153093406
709,431838317.1379281
733,431838317.1379281
760,35982000.0
785,0.0
798,0.0
2,2, 1, 2, 0,20, 0.00,60.00,Tuesday
9,322441964.19239166
45,160172315.18999998
182,34467320.35296
294,163186896.58826206
319,0.0
629,89005477.69531496
682,344438237.0652011
695,2814850.9541167428
709,437978700.1424159
733,437978700.1424159
760,35982000.0
785,0.0
798,0.0
2,2, 1, 2, 0,21, 0.00,60.00,Tuesday
9,291488759.23793247
45,133476929.325
182,30158905.30883999
294,170874895.32383824
319,0.0
629,89005477.69531496
682,344680163.88077327
695,2865446.908777427
709,438223996.1179433
733,438223996.1179433
760,35982000.0
785,0.0
798,0.0
2,2, 1, 2, 0,22, 0.00,60.00,Tuesday
9,107222473.84831728
45,53390771.73
182,17233660.17648
294,10631314.73599777
319,0.0
629,616041.9418372938
682,10087176.24961625
695,0.0
709,12932277.243097756
733,12932277.243097756
760,35982000.0
785,0.0
798,0.0
2,2, 1, 2, 0,23, 0.00,60.00,Tuesday
9,60535938.58734736
45,13347692.9325
182,8616830.08824
294,49338642.24339471
319,0.0
629,2589415.566607362
682,47023795.94480915
695,0.0
709,60286917.87796045
733,60286917.87796045
760,35982000.0
785,0.0
798,0.0
2,2, 1, 2, 0,24, 0.00,60.00,Tuesday
9,64171599.34391127
45,13347692.9325
182,8616830.08824
294,108872191.0272845
319,0.0
629,6210702.721340725
682,103700456.10742754
695,14373.601830550155
709,132930875.00717563
733,132930875.00717563
760,35982000.0
785,0.0
798,0.0
2,3, 1, 3, 0, 1, 0.00,60.00,Wednesday
9,65383670.60165496
45,13347692.9325
182,8616830.08824
294,125487890.42773792
319,0.0
629,7156720.508531426
682,119439124.81631136
695,280427.0723835388
709,152767561.21016387
733,152767561.21016387
760,35982000.0
785,0.0
798,0.0
2,3, 1, 3, 0, 2, 0.00,60.00,Wednesday
9,67932232.07957925
45,13347692.9325
182,8616830.08824
294,162036327.04892908
319,0.0
629,9486133.954492234
682,154044328.58681903
695,499575.1043470149
709,196852248.0544513
733,196852248.0544513
760,35982000.0
785,0.0
798,0.0
2,3, 1, 3, 0, 3, 0.00,60.00,Wednesday
9,67197378.27170883
45,13347692.9325
182,8616830.08824
294,150155429.94116483
319,0.0
629,8633389.726332164
682,142917987.2112647
695,617465.5246366821
709,182436566.2649077
733,182436566.2649077
760,35982000.0
785,0.0
798,0.0
2,3, 1, 3, 0, 4, 0.00,60.00,Wednesday
9,69319791.66165155
45,13347692.9325
182,8616830.08824
294,181378670.45915783
319,0.0
629,10662428.810951435
682,172464653.3742736
695,710839.829960136
709,220197196.85168395
733,220197196.85168395
760,35982000.0
785,0.0
798,0.0
2,3, 1, 3, 0, 5, 0.00,60.00,Wednesday
9,69372098.8585033
45,13347692.9325
182,8616830.08824
294,182900984.3244133
319,0.0
629,10599863.635010343
682,174261823.70054085
695,825712.2027529539
709,222353989.09972806
733,222353989.09972806
760,35982000.0
785,0.0
798,0.0
2,3, 1, 3, 0, 6, 0.00,60.00,Wednesday
9,72831393.03682265
45,13347692.9325
182,8616830.08824
294,234982556.891964
319,0.0
629,13915172.47835957
682,223781904.95437367
695,969697.5377230927
709,285656676.175193
733,285656676.175193
760,35982000.0
785,0.0
798,0.0
2,3, 1, 3, 0, 7, 0.00,60.00,Wednesday
9,154290933.81319855
45,13347692.9325
182,8616830.08824
294,577896785.12121
319,0.0
629,89005477.69531496
682,815530813.3178308
695,7338933.097143611
709,1036143436.1803682
733,1036143436.1803682
760,35982000.0
785,0.0
798,0.0
2,3, 1, 3, 0, 8, 0.00,60.00,Wednesday
9,177225506.22172193
45,53390771.73
182,17233660.17648
294,415475608.81903216
319,0.0
629,89005477.69531496
682,652296715.5693623
695,5601596.619926957
709,829096306.3454298
733,829096306.3454298
760,11994000.0
785,0.0
798,0.0
2,3, 1, 3, 0, 9, 0.00,60.00,Wednesday
9,257333715.1850172
45,133476929.325
182,30158905.30883999
294,345652642.90107706
319,0.0
629,89005477.69531496
682,591027201.3419818
695,4692402.855862291
709,751711280.1104095
733,751711280.1104095
760,0.0
785,0.0
798,0.0
2,3, 1, 3, 0,10, 0.00,60.00,Wednesday
9,371749161.16908517
45,240258472.78500004
182,38775735.39708
294,258883940.5534721
319,0.0
629,89005477.69531496
682,510365021.91275957
695,3709475.2916901849
709,649558393.103935
733,649558393.103935
760,0.0
785,0.0
798,0.0
2,3, 1, 3, 0,11, 0.00,60.00,Wednesday
9,371132244.8481154
45,240258472.78500004
182,38775735.39708
294,223352602.4350762
319,0.0
629,89005477.69531496
682,470928061.2650213
695,3092558.970720429
709,599789105.5055139
733,599789105.5055139
760,0.0
785,0.0
798,0.0
2,3, 1, 3, 0,12, 0.00,60.00,Wednesday
9,370693857.9970676
45,240258472.78500004
182,38775735.39708
294,183746623.12624584
319,0.0
629,89005477.69531496
682,423889722.2219814
695,2654172.1196725757
709,540045577.0542421
733,540045577.0542421
760,0.0
785,0.0
798,0.0
2,3, 1, 3, 0,13, 0.00,60.00,Wednesday
9,370430284.32441696
45,240258472.78500004
182,38775735.39708
294,164127818.5759022
319,0.0
629,89005477.69531496
682,397031529.18727329
695,2390598.4470219619
709,505949911.20545026
733,505949911.20545026
760,0.0
785,0.0
798,0.0
2,3, 1, 3, 0,14, 0.00,60.00,Wednesday
9,370270308.4635541
45,240258472.78500004
182,38775735.39708
294,151201539.3049669
319,0.0
629,89005477.69531496
682,381306419.3323677
695,2230622.586159093
709,485994611.21308806
733,485994611.21308806
760,0.0
785,0.0
798,0.0
2,3, 1, 3, 0,15, 0.00,60.00,Wednesday
9,370270920.4187553
45,240258472.78500004
182,38775735.39708
294,144235094.64343674
319,0.0
629,89005477.69531496
682,374340411.09005179
695,2231234.541360329
709,477063046.8572967
733,477063046.8572967
760,0.0
785,0.0
798,0.0
2,3, 1, 3, 0,16, 0.00,60.00,Wednesday
9,370336424.6430586
45,240258472.78500004
182,38775735.39708
294,133579384.99616137
319,0.0
629,89005477.69531496
682,363686823.3384152
695,2296738.7656636598
709,463320621.2471174
733,463320621.2471174
760,0.0
785,0.0
798,0.0
2,3, 1, 3, 0,17, 0.00,60.00,Wednesday
9,394595490.4752292
45,240258472.78500004
182,38775735.39708
294,141162550.10127674
319,0.0
629,89005477.69531496
682,371311508.91838809
695,2567804.597834197
709,472748338.87250497
733,472748338.87250497
760,23988000.0
785,0.0
798,0.0
2,3, 1, 3, 0,18, 0.00,60.00,Wednesday
9,406898825.6037967
45,240258472.78500004
182,38775735.39708
294,160023939.77452896
319,0.0
629,89005477.69531496
682,390156043.45904096
695,2877139.72640178
709,496511415.0418451
733,496511415.0418451
760,35982000.0
785,0.0
798,0.0
2,3, 1, 3, 0,19, 0.00,60.00,Wednesday
9,322806271.05707326
45,160172315.18999998
182,34467320.35296
294,186917181.30379183
319,0.0
629,89005477.69531496
682,417016734.00346037
695,3179157.8187983909
709,530560995.1085409
733,530560995.1085409
760,35982000.0
785,0.0
798,0.0
2,3, 1, 3, 0,20, 0.00,60.00,Wednesday
9,323093975.43520167
45,160172315.18999998
182,34467320.35296
294,212771639.21017415
319,0.0
629,89005477.69531496
682,442918259.21818247
695,3466862.1969267467
709,563399226.9503279
733,563399226.9503279
760,35982000.0
785,0.0
798,0.0
2,3, 1, 3, 0,21, 0.00,60.00,Wednesday
9,292250928.5571557
45,133476929.325
182,30158905.30883999
294,228188483.9276287
319,0.0
629,89005477.69531496
682,458415939.44468978
695,3627616.228000762
709,583061952.8419089
733,583061952.8419089
760,35982000.0
785,0.0
798,0.0
2,3, 1, 3, 0,22, 0.00,60.00,Wednesday
9,109277959.72119019
45,53390771.73
182,17233660.17648
294,49225808.947817619
319,0.0
629,2671527.8147102056
682,47184667.00010066
695,0.0
709,60493162.82064186
733,60493162.82064186
760,35982000.0
785,0.0
798,0.0
2,3, 1, 3, 0,23, 0.00,60.00,Wednesday
9,65537084.85630678
45,13347692.9325
182,8616830.08824
294,133977461.96534564
319,0.0
629,7569660.8480189279
682,127342946.26247236
695,20900.98754784788
709,163233391.37810833
733,163233391.37810833
760,35982000.0
785,0.0
798,0.0
2,3, 1, 3, 0,24, 0.00,60.00,Wednesday
9,69485402.3636063
45,13347692.9325
182,8616830.08824
294,188448942.85029529
319,0.0
629,11087450.664394333
682,179947980.08325363
695,451428.6784719599
709,230123783.8522842
733,230123783.8522842
760,35982000.0
785,0.0
798,0.0
2,4, 1, 4, 0, 1, 0.00,60.00,Thursday
9,70205565.15259633
45,13347692.9325
182,8616830.08824
294,199356588.01167489
319,0.0
629,11513862.777530652
682,189410952.46677167
695,745179.3543256754
709,241879196.29800768
733,241879196.29800768
760,35982000.0
785,0.0
798,0.0
2,4, 1, 4, 0, 2, 0.00,60.00,Thursday
9,72536942.34708125
45,13347692.9325
182,8616830.08824
294,230887138.5655001
319,0.0
629,13680228.652784724
682,220788933.1690905
695,910190.6735565398
709,281895823.71222308
733,281895823.71222308
760,35982000.0
785,0.0
798,0.0
2,4, 1, 4, 0, 3, 0.00,60.00,Thursday
9,72006879.67705369
45,13347692.9325
182,8616830.08824
294,224685643.47878397
319,0.0
629,13030763.441820665
682,213640292.76837147
695,1029593.2144930258
709,272577819.94086977
733,272577819.94086977
760,35982000.0
785,0.0
798,0.0
2,4, 1, 4, 0, 4, 0.00,60.00,Thursday
9,74505909.9869703
45,13347692.9325
182,8616830.08824
294,259561688.7514974
319,0.0
629,15432335.667605199
682,248521750.82142253
695,1127051.2986251068
709,317172691.6958941
733,317172691.6958941
760,35982000.0
785,0.0
798,0.0
2,4, 1, 4, 0, 5, 0.00,60.00,Thursday
9,73619570.25364264
45,13347692.9325
182,8616830.08824
294,248475742.5072108
319,0.0
629,14456178.423725648
682,236421360.3068517
695,1216868.8091769918
709,301544219.86881378
733,301544219.86881378
760,35982000.0
785,0.0
798,0.0
2,4, 1, 4, 0, 6, 0.00,60.00,Thursday
9,75870080.3711066
45,13347692.9325
182,8616830.08824
294,279119251.18923267
319,0.0
629,16647113.340705984
682,267454875.0973467
695,1276444.0096606126
709,341254398.83036676
733,341254398.83036676
760,35982000.0
785,0.0
798,0.0
2,4, 1, 4, 0, 7, 0.00,60.00,Thursday
9,154577618.0751979
45,13347692.9325
182,8616830.08824
294,602614307.0888972
319,0.0
629,89005477.69531496
682,842220861.6085128
695,7625617.359142961
709,1069993902.8838075
733,1069993902.8838075
760,35982000.0
785,0.0
798,0.0
2,4, 1, 4, 0, 8, 0.00,60.00,Thursday
9,177278125.7737192
45,53390771.73
182,17233660.17648
294,424241267.6824349
319,0.0
629,89005477.69531496
682,654590400.6955799
695,5654216.171924233
709,831969467.33802
733,831969467.33802
760,11994000.0
785,0.0
798,0.0
2,4, 1, 4, 0, 9, 0.00,60.00,Thursday
9,257222939.79227559
45,133476929.325
182,30158905.30883999
294,339040553.8367796
319,0.0
629,89005477.69531496
682,564695519.9773498
695,4581627.4631206509
709,718094733.9926014
733,718094733.9926014
760,0.0
785,0.0
798,0.0
2,4, 1, 4, 0,10, 0.00,60.00,Thursday
9,371563310.22743776
45,240258472.78500004
182,38775735.39708
294,238494564.01918368
319,0.0
629,89005477.69531496
682,456878814.8517138
695,3523624.3500427769
709,581224603.2072705
733,581224603.2072705
760,0.0
785,0.0
798,0.0
2,4, 1, 4, 0,11, 0.00,60.00,Thursday
9,370942210.02423307
45,240258472.78500004
182,38775735.39708
294,200799655.65527795
319,0.0
629,89005477.69531496
682,416429179.5173809
695,2902524.146838139
709,530162378.680183
733,530162378.680183
760,0.0
785,0.0
798,0.0
2,4, 1, 4, 0,12, 0.00,60.00,Thursday
9,370480849.58228388
45,240258472.78500004
182,38775735.39708
294,160753712.73318926
319,0.0
629,89005477.69531496
682,371771706.8713995
695,2441163.704888865
709,473500696.36732128
733,473500696.36732128
760,0.0
785,0.0
798,0.0
2,4, 1, 4, 0,13, 0.00,60.00,Thursday
9,370190399.38833746
45,240258472.78500004
182,38775735.39708
294,139081673.48218344
319,0.0
629,89005477.69531496
682,342858033.3464832
695,2150713.510942511
709,436804256.19941106
733,436804256.19941106
760,0.0
785,0.0
798,0.0
2,4, 1, 4, 0,14, 0.00,60.00,Thursday
9,370063896.7974489
45,240258472.78500004
182,38775735.39708
294,125592391.92983064
319,0.0
629,89005477.69531496
682,326568763.52292999
695,2024210.9200538912
709,416082759.747277
733,416082759.747277
760,0.0
785,0.0
798,0.0
2,4, 1, 4, 0,15, 0.00,60.00,Thursday
9,370094884.62650546
45,240258472.78500004
182,38775735.39708
294,120883660.61639048
319,0.0
629,89005477.69531496
682,325817714.0090242
695,2055198.7491104876
709,415080147.76912018
733,415080147.76912018
760,0.0
785,0.0
798,0.0
2,4, 1, 4, 0,16, 0.00,60.00,Thursday
9,370206234.0903744
45,240258472.78500004
182,38775735.39708
294,112446447.71806255
319,0.0
629,89005477.69531496
682,320168882.0844444
695,2166548.2129794138
709,407695299.8352116
733,407695299.8352116
760,0.0
785,0.0
798,0.0
2,4, 1, 4, 0,17, 0.00,60.00,Thursday
9,394587329.6608965
45,240258472.78500004
182,38775735.39708
294,130850132.25293687
319,0.0
629,89005477.69531496
682,351658339.0856817
695,2559643.7835015079
709,447562429.8745899
733,447562429.8745899
760,23988000.0
785,0.0
798,0.0
2,4, 1, 4, 0,18, 0.00,60.00,Thursday
9,407071512.27064648
45,240258472.78500004
182,38775735.39708
294,164575728.2019321
319,0.0
629,89005477.69531496
682,403272882.279423
695,3049826.393251513
709,513106481.90534809
733,513106481.90534809
760,35982000.0
785,0.0
798,0.0
2,4, 1, 4, 0,19, 0.00,60.00,Thursday
9,323164519.4276861
45,160172315.18999998
182,34467320.35296
294,204772879.11128528
319,0.0
629,89005477.69531496
682,458074310.23911848
695,3537406.1894112105
709,582739620.5765478
733,582739620.5765478
760,35982000.0
785,0.0
798,0.0
2,4, 1, 4, 0,20, 0.00,60.00,Thursday
9,323558349.85198888
45,160172315.18999998
182,34467320.35296
294,237700391.804511
319,0.0
629,89005477.69531496
682,497095751.4728458
695,3931236.6137140088
709,632262198.5373485
733,632262198.5373485
760,35982000.0
785,0.0
798,0.0
2,4, 1, 4, 0,21, 0.00,60.00,Thursday
9,292708317.12917289
45,133476929.325
182,30158905.30883999
294,251796423.93835644
319,0.0
629,89005477.69531496
682,506558686.9102895
695,4085004.800017884
709,644197028.3465021
733,644197028.3465021
760,35982000.0
785,0.0
798,0.0
2,4, 1, 4, 0,22, 0.00,60.00,Thursday
9,110211403.34736422
45,53390771.73
182,17233660.17648
294,66925014.57600948
319,0.0
629,3604971.440884237
682,64189392.22894914
695,0.0
709,82294092.60121686
733,82294092.60121686
760,35982000.0
785,0.0
798,0.0
2,4, 1, 4, 0,23, 0.00,60.00,Thursday
9,70356009.581213
45,13347692.9325
182,8616830.08824
294,209364972.20402188
319,0.0
629,12140836.670650412
682,199161859.99359838
695,268649.8898225944
709,254991295.0048408
733,254991295.0048408
760,35982000.0
785,0.0
798,0.0
2,4, 1, 4, 0,24, 0.00,60.00,Thursday
9,72845733.3524839
45,13347692.9325
182,8616830.08824
294,238117023.53721673
319,0.0
629,13936306.453406547
682,228413399.84109438
695,962903.878337373
709,291603199.95225259
733,291603199.95225259
760,35982000.0
785,0.0
798,0.0
2,5, 1, 5, 0, 1, 0.00,60.00,Friday
9,78620068.6599275
45,13347692.9325
182,8616830.08824
294,328258081.4404248
319,0.0
629,19360419.952797004
682,312795309.07746168
695,1313125.6863905094
709,399336132.5526554
733,399336132.5526554
760,35982000.0
785,0.0
798,0.0
2,5, 1, 5, 0, 2, 0.00,60.00,Friday
9,76164388.03001759
45,13347692.9325
182,8616830.08824
294,284084949.61660829
319,0.0
629,16734356.73718163
682,273181033.7545645
695,1483508.272095962
709,348330160.8749597
733,348330160.8749597
760,35982000.0
785,0.0
798,0.0
2,5, 1, 5, 0, 3, 0.00,60.00,Friday
9,80894231.95399849
45,13347692.9325
182,8616830.08824
294,360542640.8312825
319,0.0
629,21335408.167672106
682,343844137.85457047
695,1612300.7655863965
709,438758765.49869748
733,438758765.49869748
760,35982000.0
785,0.0
798,0.0
2,5, 1, 5, 0, 4, 0.00,60.00,Friday
9,78977366.23365648
45,13347692.9325
182,8616830.08824
294,325793142.71556189
319,0.0
629,19234008.72407278
682,312939842.9659827
695,1796834.488843705
709,398901292.9194089
733,398901292.9194089
760,35982000.0
785,0.0
798,0.0
2,5, 1, 5, 0, 5, 0.00,60.00,Friday
9,87452349.12140991
45,13347692.9325
182,8616830.08824
294,461864707.44298747
319,0.0
629,27373029.25353751
682,440198453.1012888
695,2132796.8471323947
709,561622636.2232773
733,561622636.2232773
760,35982000.0
785,0.0
798,0.0
2,5, 1, 5, 0, 6, 0.00,60.00,Friday
9,86140782.63100894
45,13347692.9325
182,8616830.08824
294,434812553.9371458
319,0.0
629,25681329.104688944
682,416997912.04135176
695,2512930.505579999
709,531391001.9689381
733,531391001.9689381
760,35982000.0
785,0.0
798,0.0
2,5, 1, 5, 0, 7, 0.00,60.00,Friday
9,156917879.83421896
45,13347692.9325
182,8616830.08824
294,814468050.2558285
319,0.0
629,89005477.69531496
682,1212711532.1578584
695,9965879.118164003
709,1541981606.4611469
733,1541981606.4611469
760,35982000.0
785,0.0
798,0.0
2,5, 1, 5, 0, 8, 0.00,60.00,Friday
9,179731804.07063476
45,53390771.73
182,17233660.17648
294,608535824.8639513
319,0.0
629,89005477.69531496
682,992283114.5748139
695,8107894.468839806
709,1261763102.6999665
733,1261763102.6999665
760,11994000.0
785,0.0
798,0.0
2,5, 1, 5, 0, 9, 0.00,60.00,Friday
9,258342209.7490291
45,133476929.325
182,30158905.30883999
294,503035928.11628308
319,0.0
629,89005477.69531496
682,880741064.0292089
695,5700897.41987417
709,1121846367.447865
733,1121846367.447865
760,0.0
785,0.0
798,0.0
2,5, 1, 5, 0,10, 0.00,60.00,Friday
9,371032880.1037312
45,240258472.78500004
182,38775735.39708
294,370398455.71330568
319,0.0
629,89005477.69531496
682,730935134.5870772
695,2993194.2263362745
709,933258897.8983858
733,933258897.8983858
760,0.0
785,0.0
798,0.0
2,5, 1, 5, 0,11, 0.00,60.00,Friday
9,368883541.15684416
45,240258472.78500004
182,38775735.39708
294,294878810.1398889
319,0.0
629,89005477.69531496
682,625274322.1573829
695,843855.2794491565
709,800551880.6127355
733,800551880.6127355
760,0.0
785,0.0
798,0.0
2,5, 1, 5, 0,12, 0.00,60.00,Friday
9,367998184.9921724
45,240258472.78500004
182,38775735.39708
294,225991832.74509985
319,0.0
629,88963976.81009242
682,531228328.5790508
695,0.0
709,681061959.7167317
733,681061959.7167317
760,0.0
785,0.0
798,0.0
2,5, 1, 5, 0,13, 0.00,60.00,Friday
9,367998184.9921724
45,240258472.78500004
182,38775735.39708
294,188846694.42046405
319,0.0
629,88963976.81009242
682,476672738.6817458
695,0.0
709,611118895.7458278