Program Version,EnergyPlus, Version 9.2.0-921312fa1d, YMD=2020.12.22 17:58
1,5,Environment Title[],Latitude[deg],Longitude[deg],Time Zone[],Elevation[m]
2,8,Day of Simulation[],Month[],Day of Month[],DST Indicator[1=yes 0=no],Hour[],StartMinute[],EndMinute[],DayType
3,5,Cumulative Day of Simulation[],Month[],Day of Month[],DST Indicator[1=yes 0=no],DayType  ! When Daily Report Variables Requested
4,2,Cumulative Days of Simulation[],Month[]  ! When Monthly Report Variables Requested
5,1,Cumulative Days of Simulation[] ! When Run Period Report Variables Requested
6,1,Calendar Year of Simulation[] ! When Annual Report Variables Requested
342,1,BACK_SPACE,Zone Thermostat Heating Setpoint Temperature [C] !Hourly
343,1,BACK_SPACE,Zone Thermostat Cooling Setpoint Temperature [C] !Hourly
382,1,CORE_RETAIL,Zone Thermostat Heating Setpoint Temperature [C] !Hourly
383,1,CORE_RETAIL,Zone Thermostat Cooling Setpoint Temperature [C] !Hourly
422,1,FRONT_ENTRY,Zone Thermostat Heating Setpoint Temperature [C] !Hourly
423,1,FRONT_ENTRY,Zone Thermostat Cooling Setpoint Temperature [C] !Hourly
462,1,FRONT_RETAIL,Zone Thermostat Heating Setpoint Temperature [C] !Hourly
463,1,FRONT_RETAIL,Zone Thermostat Cooling Setpoint Temperature [C] !Hourly
502,1,POINT_OF_SALE,Zone Thermostat Heating Setpoint Temperature [C] !Hourly
503,1,POINT_OF_SALE,Zone Thermostat Cooling Setpoint Temperature [C] !Hourly
9,1,Electricity:Facility [J] !Hourly
695,1,Heating:Electricity [J] !Hourly
798,1,Cooling:Electricity [J] !Hourly
45,1,InteriorLights:Electricity [J] !Hourly
760,1,ExteriorLights:Electricity [J] !Hourly
182,1,InteriorEquipment:Electricity [J] !Hourly
629,1,Fans:Electricity [J] !Hourly
709,1,Gas:Facility [J] !Hourly
733,1,Heating:Gas [J] !Hourly
294,1,Heating:EnergyTransfer [J] !Hourly
319,1,Cooling:EnergyTransfer [J] !Hourly
682,1,HeatingCoils:EnergyTransfer [J] !Hourly
785,1,CoolingCoils:EnergyTransfer [J] !Hourly
1530,1,PSZ-AC:1,Air System Total Heating Energy [J] !Hourly
1531,1,PSZ-AC:1,Air System Total Cooling Energy [J] !Hourly
1532,1,PSZ-AC:2,Air System Total Heating Energy [J] !Hourly
1533,1,PSZ-AC:2,Air System Total Cooling Energy [J] !Hourly
1534,1,PSZ-AC:3,Air System Total Heating Energy [J] !Hourly
1535,1,PSZ-AC:3,Air System Total Cooling Energy [J] !Hourly
1536,1,PSZ-AC:4,Air System Total Heating Energy [J] !Hourly
1537,1,PSZ-AC:4,Air System Total Cooling Energy [J] !Hourly
End of Data Dictionary
1,RUNPERIOD 1,  41.98, -87.92,  -6.00, 201.00
2,1, 1, 1, 0, 1, 0.00,60.00,Holiday
342,15.6
343,30.0
382,15.6
383,30.0
422,15.6
423,90.0
462,15.6
463,30.0
502,15.6
503,30.0
1530,91389548.32202772
1531,0.0
1532,172857075.51356397
1533,0.0
1534,42101222.61625657
1535,0.0
1536,43308763.70958331
1537,0.0
9,77598898.35644445
45,13347692.9325
182,6462622.566179999
294,346525782.8194622
319,0.0
629,20481319.082708729
682,330542055.7390073
695,1325263.77505573
709,422072810.2101943
733,422072810.2101943
760,35982000.0
785,0.0
798,0.0
2,1, 1, 1, 0, 2, 0.00,60.00,Holiday
342,15.6
343,30.0
382,15.6
383,30.0
422,15.6
423,90.0
462,15.6
463,30.0
502,15.6
503,30.0
1530,93987538.34895344
1531,0.0
1532,188370543.20804618
1533,0.0
1534,43531158.264923397
1535,0.0
1536,44321415.29187662
1537,0.0
9,79384523.71541837
45,13347692.9325
182,6462622.566179999
294,367848534.1929033
319,0.0
629,21752806.13616484
682,350338751.9434341
695,1839402.0805735444
709,446794038.2857187
733,446794038.2857187
760,35982000.0
785,0.0
798,0.0
2,1, 1, 1, 0, 3, 0.00,60.00,Holiday
342,15.6
343,30.0
382,15.6
383,30.0
422,15.6
423,90.0
462,15.6
463,30.0
502,15.6
503,30.0
1530,129134732.26884616
1531,0.0
1532,258737961.74331857
1533,0.0
1534,59086704.32751201
1535,0.0
1536,60289675.00606671
1537,0.0
9,87584488.1693473
45,13347692.9325
182,6462622.566179999
294,500796848.0740648
319,0.0
629,29717259.330515468
682,479648228.2406086
695,2074913.3401518444
709,612273480.6416112
733,612273480.6416112
760,35982000.0
785,0.0
798,0.0
2,1, 1, 1, 0, 4, 0.00,60.00,Holiday
342,15.6
343,30.0
382,15.6
383,30.0
422,15.6
423,90.0
462,15.6
463,30.0
502,15.6
503,30.0
1530,96880630.78835798
1531,0.0
1532,195212850.39855413
1533,0.0
1534,44420501.23716559
1535,0.0
1536,45361427.11536907
1537,0.0
9,80480490.22127745
45,13347692.9325
182,6462622.566179999
294,379843021.5386827
319,0.0
629,22468832.561701433
682,361667420.0238665
695,2219342.1608960258
709,460830869.0550903
733,460830869.0550903
760,35982000.0
785,0.0
798,0.0
2,1, 1, 1, 0, 5, 0.00,60.00,Holiday
342,15.6
343,30.0
382,15.6
383,30.0
422,15.6
423,90.0
462,15.6
463,30.0
502,15.6
503,30.0
1530,130361807.31654963
1531,0.0
1532,267170748.98537556
1533,0.0
1534,59822201.691538918
1535,0.0
1536,61049987.80554739
1537,0.0
9,88492996.57298753
45,13347692.9325
182,6462622.566179999
294,512119200.1192168
319,0.0
629,30390800.586467074
682,490365326.5856142
695,2309880.487840459
709,625712110.3817613
733,625712110.3817613
760,35982000.0
785,0.0
798,0.0
2,1, 1, 1, 0, 6, 0.00,60.00,Holiday
342,15.6
343,30.0
382,15.6
383,30.0
422,15.6
423,90.0
462,15.6
463,30.0
502,15.6
503,30.0
1530,97266218.7674559
1531,0.0
1532,199378916.75019057
1533,0.0
1534,44735759.39393217
1535,0.0
1536,45675991.51919851
1537,0.0
9,80943491.94658809
45,13347692.9325
182,6462622.566179999
294,385154547.6389917
319,0.0
629,22783603.535563854
682,366682356.6927834
695,2367572.912344242
709,467070235.6159475
733,467070235.6159475
760,35982000.0
785,0.0
798,0.0
2,1, 1, 1, 0, 7, 0.00,60.00,Holiday
342,15.6
343,30.0
382,15.6
383,30.0
422,15.6
423,90.0
462,15.6
463,30.0
502,15.6
503,30.0
1530,131164418.5640344
1531,0.0
1532,273283808.20648279
1533,0.0
1534,60352615.57231733
1535,0.0
1536,61574234.38822994
1537,0.0
9,89086099.27915335
45,13347692.9325
182,6462622.566179999
294,520145628.2351521
319,0.0
629,30867161.642301356
682,497976038.1121623
695,2426622.1381719915
709,635319764.0692182
733,635319764.0692182
760,35982000.0
785,0.0
798,0.0
2,1, 1, 1, 0, 8, 0.00,60.00,Holiday
342,15.6
343,30.0
382,15.6
383,30.0
422,15.6
423,90.0
462,15.6
463,30.0
502,15.6
503,30.0
1530,97418635.39660396
1531,0.0
1532,201633524.98024328
1533,0.0
1534,44451947.139886308
1535,0.0
1536,45396749.72370949
1537,0.0
9,56986444.34378935
45,13347692.9325
182,6462622.566179999
294,386864892.8547874
319,0.0
629,22911167.195690507
682,368302152.5793959
695,2270961.649418843
709,469270757.60253468
733,469270757.60253468
760,11994000.0
785,0.0
798,0.0
2,1, 1, 1, 0, 9, 0.00,60.00,Holiday
342,21.0
343,24.0
382,21.0
383,24.0
422,21.0
423,90.0
462,21.0
463,24.0
502,21.0
503,24.0
1530,216087274.38222159
1531,0.0
1532,746606269.0619145
1533,0.0
1534,101053006.48509814
1535,0.0
1536,103177638.43105333
1537,0.0
9,136206071.77957816
45,26695385.865
182,12925245.132359999
294,752146437.6757368
319,0.0
629,89005477.69531496
682,1085540174.6371029
695,7579963.086903177
709,1382000271.2182048
733,1382000271.2182048
760,0.0
785,0.0
798,0.0
2,1, 1, 1, 0,10, 0.00,60.00,Holiday
342,21.0
343,24.0
382,21.0
383,24.0
422,21.0
423,90.0
462,21.0
463,24.0
502,21.0
503,24.0
1530,159378693.78785805
1531,0.0
1532,582343342.414442
1533,0.0
1534,67868428.22835136
1535,0.0
1536,69408004.24110048
1537,0.0
9,132431680.38775382
45,26695385.865
182,12925245.132359999
294,499940278.5348172
319,0.0
629,89005477.69531496
682,793840063.556743
695,3805571.695078872
709,1012864733.1559795
733,1012864733.1559795
760,0.0
785,0.0
798,0.0
2,1, 1, 1, 0,11, 0.00,60.00,Holiday
342,21.0
343,24.0
382,21.0
383,24.0
422,21.0
423,90.0
462,21.0
463,24.0
502,21.0
503,24.0
1530,136293154.47719235
1531,0.0
1532,493969438.06342688
1533,0.0
1534,50234060.9619903
1535,0.0
1536,53246389.64681267
1537,0.0
9,223436733.26594
45,106781543.46
182,25850490.264719998
294,378098562.5484406
319,0.0
629,89005477.69531496
682,646578288.1852348
695,1799221.8459050123
709,826639828.6401663
733,826639828.6401663
760,0.0
785,0.0
798,0.0
2,1, 1, 1, 0,12, 0.00,60.00,Holiday
342,21.0
343,24.0
382,21.0
383,24.0
422,21.0
423,90.0
462,21.0
463,24.0
502,21.0
503,24.0
1530,121663961.95498432
1531,0.0
1532,442575508.7841429
1533,0.0
1534,42138661.241122689
1535,0.0
1536,45343171.507268559
1537,0.0
9,222553831.76805736
45,106781543.46
182,25850490.264719998
294,317780620.76326778
319,0.0
629,89005477.69531496
682,563673647.025443
695,916320.3480223792
709,721483752.1505393
733,721483752.1505393
760,0.0
785,0.0
798,0.0
2,1, 1, 1, 0,13, 0.00,60.00,Holiday
342,21.0
343,24.0
382,21.0
383,24.0
422,21.0
423,90.0
462,21.0
463,24.0
502,21.0
503,24.0
1530,107417155.91134192
1531,0.0
1532,379931703.6165383
1533,0.0
1534,37028951.36545475
1535,0.0
1536,41797945.42133953
1537,0.0
9,284936395.5262376
45,160172315.18999998
182,34467320.35296
294,250574958.04687885
319,0.0
629,89005477.69531496
682,478503061.792544
695,1291282.2879626486
709,611809973.7238221
733,611809973.7238221
760,0.0
785,0.0
798,0.0
2,1, 1, 1, 0,14, 0.00,60.00,Holiday
342,21.0
343,24.0
382,21.0
383,24.0
422,21.0
423,90.0
462,21.0
463,24.0
502,21.0
503,24.0
1530,98169302.11431855
1531,0.0
1532,347064744.21297159
1533,0.0
1534,36507181.51637986
1535,0.0
1536,41707644.93148941
1537,0.0
9,285503955.2330538
45,160172315.18999998
182,34467320.35296
294,223079333.8961362
319,0.0
629,89005477.69531496
682,436343737.9598502
695,1858841.994778843
709,557031917.9039375
733,557031917.9039375
760,0.0
785,0.0
798,0.0
2,1, 1, 1, 0,15, 0.00,60.00,Holiday
342,21.0
343,24.0
382,21.0
383,24.0
422,21.0
423,90.0
462,21.0
463,24.0
502,21.0
503,24.0
1530,93112427.61854732
1531,0.0
1532,330132880.3381571
1533,0.0
1534,36285822.10180303
1535,0.0
1536,41771302.61758376
1537,0.0
9,285747457.03417506
45,160172315.18999998
182,34467320.35296
294,207259742.65965844
319,0.0
629,89005477.69531496
682,414440799.6618974
695,2102343.7959000847
709,528639045.98204788
733,528639045.98204788
760,0.0
785,0.0
798,0.0
2,1, 1, 1, 0,16, 0.00,60.00,Holiday
342,21.0
343,24.0
382,21.0
383,24.0
422,21.0
423,90.0
462,21.0
463,24.0
502,21.0
503,24.0
1530,91397658.81446718
1531,0.0
1532,323903411.3978938
1533,0.0
1534,37495818.96824848
1535,0.0
1536,43204450.38849321
1537,0.0
9,286079822.12067416
45,160172315.18999998
182,34467320.35296
294,202209623.64960347
319,0.0
629,89005477.69531496
682,409472071.6414089
695,2434708.8823991857
709,521842772.7679611
733,521842772.7679611
760,0.0
785,0.0
798,0.0
2,1, 1, 1, 0,17, 0.00,60.00,Holiday
342,21.0
343,24.0
382,21.0
383,24.0
422,21.0
423,90.0
462,21.0
463,24.0
502,21.0
503,24.0
1530,91110159.050613
1531,0.0
1532,321033352.37231698
1533,0.0
1534,39131197.58705279
1535,0.0
1536,45018594.00345058
1537,0.0
9,310434051.41939958
45,160172315.18999998
182,34467320.35296
294,202832355.96081148
319,0.0
629,89005477.69531496
682,410130264.3844644
695,2800938.181124635
709,522217084.87607648
733,522217084.87607648
760,23988000.0
785,0.0
798,0.0
2,1, 1, 1, 0,18, 0.00,60.00,Holiday
342,21.0
343,24.0
382,21.0
383,24.0
422,21.0
423,90.0
462,21.0
463,24.0
502,21.0
503,24.0
1530,142676623.29387862
1531,0.0
1532,465243334.483977
1533,0.0
1534,64875338.43770703
1535,0.0
1536,69670641.08253928
1537,0.0
9,259377917.45115418
45,106781543.46
182,25850490.264719998
294,443296597.6417586
319,0.0
629,89005477.69531496
682,655260366.5191344
695,1758406.0311192107
709,837823026.2666861
733,837823026.2666861
760,35982000.0
785,0.0
798,0.0
2,1, 1, 1, 0,19, 0.00,60.00,Holiday
342,21.0
343,24.0
382,21.0
383,24.0
422,21.0
423,90.0
462,21.0
463,24.0
502,21.0
503,24.0
1530,150172746.14603053
1531,0.0
1532,501493228.3449199
1533,0.0
1534,71553598.82715637
1535,0.0
1536,75026114.60421066
1537,0.0
9,197835013.44894598
45,53390771.73
182,17233660.17648
294,492268650.25981679
319,0.0
629,89005477.69531496
682,711504814.9593723
695,2223103.84715099
709,909335527.0669502
733,909335527.0669502
760,35982000.0
785,0.0
798,0.0
2,1, 1, 1, 0,20, 0.00,60.00,Holiday
342,15.6
343,30.0
382,15.6
383,30.0
422,15.6
423,90.0
462,15.6
463,30.0
502,15.6
503,30.0
1530,27878702.83972262
1531,0.0
1532,0.0
1533,0.0
1534,11805647.609308418
1535,0.0
1536,13327053.99512814
1537,0.0
9,58609251.68860327
45,13347692.9325
182,6462622.566179999
294,52420707.40533762
319,0.0
629,2816936.1899232778
682,50194468.25423661
695,0.0
709,64351882.37722643
733,64351882.37722643
760,35982000.0
785,0.0
798,0.0
2,1, 1, 1, 0,21, 0.00,60.00,Holiday
342,15.600000000000004
343,30.00000000000001
382,15.600000000000004
383,30.00000000000001
422,15.600000000000004
423,90.00000000000002
462,15.600000000000004
463,30.00000000000001
502,15.600000000000004
503,30.00000000000001
1530,49773428.22745829
1531,0.0
1532,58218836.32903133
1533,0.0
1534,21992895.717580555
1535,0.0
1536,23420238.6525222
1537,0.0
9,64621078.08702353
45,13347692.9325
182,6462622.566179999
294,152213825.01249189
319,0.0
629,8805957.655391667
682,144633774.22782649
695,22804.932951854356
709,185398678.58317263
733,185398678.58317263
760,35982000.0
785,0.0
798,0.0
2,1, 1, 1, 0,22, 0.00,60.00,Holiday
342,15.6
343,30.0
382,15.6
383,30.0
422,15.6
423,90.0
462,15.6
463,30.0
502,15.6
503,30.0
1530,50974596.51192842
1531,0.0
1532,79604180.65695174
1533,0.0
1534,22791084.306619098
1535,0.0
1536,24027992.859271699
1537,0.0
9,66523589.68622874
45,13347692.9325
182,6462622.566179999
294,175664315.7432238
319,0.0
629,10350916.588015497
682,167468796.2315135
695,380357.5995332401
709,214215946.9640772
733,214215946.9640772
760,35982000.0
785,0.0
798,0.0
2,1, 1, 1, 0,23, 0.00,60.00,Holiday
342,15.6
343,30.0
382,15.6
383,30.0
422,15.6
423,90.0
462,15.6
463,30.0
502,15.6
503,30.0
1530,59539648.404419708
1531,0.0
1532,85182031.04538217
1533,0.0
1534,27014667.402471067
1535,0.0
1536,28327021.03020251
1537,0.0
9,68045256.15419545
45,13347692.9325
182,6462622.566179999
294,198917666.6647049
319,0.0
629,11592504.129061746
682,189172801.1650922
695,660436.5264537014
709,241682518.7674852
733,241682518.7674852
760,35982000.0
785,0.0
798,0.0
2,1, 1, 1, 0,24, 0.00,60.00,Holiday
342,15.6
343,30.0
382,15.6
383,30.0
422,15.6
423,90.0
462,15.6
463,30.0
502,15.6
503,30.0
1530,57922295.08615142
1531,0.0
1532,103163924.7774576
1533,0.0
1534,26489377.993768809
1535,0.0
1536,27692764.997370468
1537,0.0
9,69246498.28576613
45,13347692.9325
182,6462622.566179999
294,213235179.79105283
319,0.0
629,12607178.680357337
682,203549689.16634447
695,847004.1067287909
709,259875237.25591756
733,259875237.25591756
760,35982000.0
785,0.0
798,0.0
2,2, 1, 2, 0, 1, 0.00,60.00,Tuesday
342,15.6
343,30.0
382,15.6
383,30.0
422,15.6
423,90.0
462,15.6
463,30.0
502,15.6
503,30.0
1530,70719736.25746072
1531,0.0
1532,114467959.49279739
1533,0.0
1534,32196444.243932964
1535,0.0
1536,33728927.69841963
1537,0.0
9,73604219.51223752
45,13347692.9325
182,8616830.08824
294,249420195.30953569
319,0.0
629,14609064.70478193
682,237594135.65976946
695,1048631.786715601
709,303263466.5039152
733,303263466.5039152
760,35982000.0
785,0.0
798,0.0
2,2, 1, 2, 0, 2, 0.00,60.00,Tuesday
342,15.6
343,30.0
382,15.6
383,30.0
422,15.6
423,90.0
462,15.6
463,30.0
502,15.6
503,30.0
1530,68039954.72595915
1531,0.0
1532,132046105.74194095
1533,0.0
1534,31284227.803519124
1535,0.0
1536,32682511.897022875
1537,0.0
9,74649346.54637075
45,13347692.9325
182,8616830.08824
294,261121259.37948299
319,0.0
629,15509206.157184724
682,249778712.26493056
695,1193617.3684460326
709,318698839.6108776
733,318698839.6108776
760,35982000.0
785,0.0
798,0.0
2,2, 1, 2, 0, 3, 0.00,60.00,Tuesday
342,15.6
343,30.0
382,15.6
383,30.0
422,15.6
423,90.0
462,15.6
463,30.0
502,15.6
503,30.0
1530,75022474.33801823
1531,0.0
1532,126332271.91230569
1533,0.0
1534,34268268.22886439
1535,0.0
1536,35711528.708421479
1537,0.0
9,75044624.36029664
45,13347692.9325
182,8616830.08824
294,269409087.1049292
319,0.0
629,15805211.674653708
682,256863722.0630845
695,1292889.6649029325
709,327654913.331002
733,327654913.331002
760,35982000.0
785,0.0
798,0.0
2,2, 1, 2, 0, 4, 0.00,60.00,Tuesday
342,15.6
343,30.0
382,15.6
383,30.0
422,15.6
423,90.0
462,15.6
463,30.0
502,15.6
503,30.0
1530,70232358.059234
1531,0.0
1532,139397170.47205077
1533,0.0
1534,31711397.739331295
1535,0.0
1536,33021684.390248047
1537,0.0
9,75457555.99849476
45,13347692.9325
182,8616830.08824
294,271371627.98228099
319,0.0
629,16158615.196119633
682,259597914.1316048
695,1352417.7816351359
709,331083969.67944827
733,331083969.67944827
760,35982000.0
785,0.0
798,0.0
2,2, 1, 2, 0, 5, 0.00,60.00,Tuesday
342,15.6
343,30.0
382,15.6
383,30.0
422,15.6
423,90.0
462,15.6
463,30.0
502,15.6
503,30.0
1530,71641033.313412
1531,0.0
1532,121058589.60054514
1533,0.0
1534,32475958.879967676
1535,0.0
1536,33971714.19049458
1537,0.0
9,74385654.06799412
45,13347692.9325
182,8616830.08824
294,257469897.67078353
319,0.0
629,15108094.027897738
682,245411739.861103
695,1331037.019356385
709,312923978.0022393
733,312923978.0022393
760,35982000.0
785,0.0
798,0.0
2,2, 1, 2, 0, 6, 0.00,60.00,Tuesday
342,15.6
343,30.0
382,15.6
383,30.0
422,15.6
423,90.0
462,15.6
463,30.0
502,15.6
503,30.0
1530,62915773.560489688
1531,0.0
1532,125189482.95464242
1533,0.0
1534,28408738.86331479
1535,0.0
1536,29742499.676724465
1537,0.0
9,73746311.93263723
45,13347692.9325
182,8616830.08824
294,244043913.31292299
319,0.0
629,14508254.03783342
682,233081276.7766282
695,1291534.874063811
709,297166335.7725184
733,297166335.7725184
760,35982000.0
785,0.0
798,0.0
2,2, 1, 2, 0, 7, 0.00,60.00,Tuesday
342,21.0
343,24.0
382,21.0
383,24.0
422,21.0
423,90.0
462,21.0
463,24.0
502,21.0
503,24.0
1530,160994607.45986463
1531,0.0
1532,567105793.4891182
1533,0.0
1534,81121201.72086005
1535,0.0
1536,83003260.75407698
1537,0.0
9,154384284.8176472
45,13347692.9325
182,8616830.08824
294,600701240.5036078
319,0.0
629,89005477.69531496
682,810693170.7154195
695,7432284.101592255
709,1029821649.5049069
733,1029821649.5049069
760,35982000.0
785,0.0
798,0.0
2,2, 1, 2, 0, 8, 0.00,60.00,Tuesday
342,21.0
343,24.0
382,21.0
383,24.0
422,21.0
423,90.0
462,21.0
463,24.0
502,21.0
503,24.0
1530,123312209.96354516
1531,0.0
1532,448779656.42208579
1533,0.0
1534,62587247.823744218
1535,0.0
1536,65538665.93166527
1537,0.0
9,177041442.38259299
45,53390771.73
182,17233660.17648
294,416005014.2528142
319,0.0
629,89005477.69531496
682,616671336.1117482
695,5417532.780798016
709,783658722.2191668
733,783658722.2191668
760,11994000.0
785,0.0
798,0.0
2,2, 1, 2, 0, 9, 0.00,60.00,Tuesday
342,21.0
343,24.0
382,21.0
383,24.0
422,21.0
423,90.0
462,21.0
463,24.0
502,21.0
503,24.0
1530,108735015.95367627
1531,0.0
1532,390526586.2955485
1533,0.0
1534,52253342.62460638
1535,0.0
1536,57134859.45820707
1537,0.0
9,257065619.50708667
45,133476929.325
182,30158905.30883999
294,328099520.62631949
319,0.0
629,89005477.69531496
682,524110134.69987818
695,4424307.177931704
709,666263881.438393
733,666263881.438393
760,0.0
785,0.0
798,0.0
2,2, 1, 2, 0,10, 0.00,60.00,Tuesday
342,21.0
343,24.0
382,21.0
383,24.0
422,21.0
423,90.0
462,21.0
463,24.0
502,21.0
503,24.0
1530,94725386.85360322
1531,0.0
1532,315198333.3687365
1533,0.0
1534,40639549.93668159
1535,0.0
1536,46807588.77546904
1537,0.0
9,371350239.8558478
45,240258472.78500004
182,38775735.39708
294,223723962.73624323
319,0.0
629,89005477.69531496
682,411717436.1028593
695,3310553.9784527898
709,523598566.8261622
733,523598566.8261622
760,0.0
785,0.0
798,0.0
2,2, 1, 2, 0,11, 0.00,60.00,Tuesday
342,21.0
343,24.0
382,21.0
383,24.0
422,21.0
423,90.0
462,21.0
463,24.0
502,21.0
503,24.0
1530,84705109.03664269
1531,0.0
1532,279143906.8539363
1533,0.0
1534,34680197.66515004
1535,0.0
1536,40838860.16208926
1537,0.0
9,370687343.02563497
45,240258472.78500004
182,38775735.39708
294,177016151.1790444
319,0.0
629,89005477.69531496
682,353051754.05597087
695,2647657.1482399546
709,449236021.67657807
733,449236021.67657807
760,0.0
785,0.0
798,0.0
2,2, 1, 2, 0,12, 0.00,60.00,Tuesday
342,21.0
343,24.0
382,21.0
383,24.0
422,21.0
423,90.0
462,21.0
463,24.0
502,21.0
503,24.0
1530,77481361.58904428
1531,0.0
1532,247066783.87689544
1533,0.0
1534,29773758.355557249
1535,0.0
1536,35933467.998615708
1537,0.0
9,370158951.33385619
45,240258472.78500004
182,38775735.39708
294,133494919.48265073
319,0.0
629,89005477.69531496
682,303410660.4664879
695,2119265.4564612174
709,386271019.2436239
733,386271019.2436239
760,0.0
785,0.0
798,0.0
2,2, 1, 2, 0,13, 0.00,60.00,Tuesday
342,21.0
343,24.0
382,21.0
383,24.0
422,21.0
423,90.0
462,21.0
463,24.0
502,21.0
503,24.0
1530,73137434.33558768
1531,0.0
1532,236803205.7562344
1533,0.0
1534,27412288.503859886
1535,0.0
1536,33546220.566189358
1537,0.0
9,369855305.8702115
45,240258472.78500004
182,38775735.39708
294,113777037.08573886
319,0.0
629,89005477.69531496
682,283750792.3445992
695,1815619.992816505
709,361455349.1689521
733,361455349.1689521
760,0.0
785,0.0
798,0.0
2,2, 1, 2, 0,14, 0.00,60.00,Tuesday
342,21.0
343,24.0
382,21.0
383,24.0
422,21.0
423,90.0
462,21.0
463,24.0
502,21.0
503,24.0
1530,73018232.40712033
1531,0.0
1532,245368908.14963297
1533,0.0
1534,28162655.633331818
1535,0.0
1536,34169522.00586852
1537,0.0
9,369809240.9363771
45,240258472.78500004
182,38775735.39708
294,110008408.96496915
319,0.0
629,89005477.69531496
682,293524896.44484636
695,1769555.0589821302
709,374045309.4690566
733,374045309.4690566
760,0.0
785,0.0
798,0.0
2,2, 1, 2, 0,15, 0.00,60.00,Tuesday
342,21.0
343,24.0
382,21.0
383,24.0
422,21.0
423,90.0
462,21.0
463,24.0
502,21.0
503,24.0
1530,74993009.84137401
1531,0.0
1532,256297536.39538858
1533,0.0
1534,30069192.973125299
1535,0.0
1536,36014842.050846789
1537,0.0
9,369943977.025506
45,240258472.78500004
182,38775735.39708
294,112467310.31882179
319,0.0
629,89005477.69531496
682,310314895.5987525
695,1904291.1481110452
709,395398210.8341557
733,395398210.8341557
760,0.0
785,0.0
798,0.0
2,2, 1, 2, 0,16, 0.00,60.00,Tuesday
342,21.0
343,24.0
382,21.0
383,24.0
422,21.0
423,90.0
462,21.0
463,24.0
502,21.0
503,24.0
1530,73211720.57210344
1531,0.0
1532,239213082.57882438
1533,0.0
1534,29088252.60462863
1535,0.0
1536,35158764.14472381
1537,0.0
9,369994803.9137136
45,240258472.78500004
182,38775735.39708
294,97844693.27756366
319,0.0
629,89005477.69531496
682,289662961.1265092
695,1955118.036318633
709,368856209.08998796
733,368856209.08998796
760,0.0
785,0.0
798,0.0
2,2, 1, 2, 0,17, 0.00,60.00,Tuesday
342,21.0
343,24.0
382,21.0
383,24.0
422,21.0
423,90.0
462,21.0
463,24.0
502,21.0
503,24.0
1530,72655882.45931773
1531,0.0
1532,234726354.25245793
1533,0.0
1534,29574316.83276601
1535,0.0
1536,35812872.24322477
1537,0.0
9,394180281.9395339
45,240258472.78500004
182,38775735.39708
294,100812751.22736576
319,0.0
629,89005477.69531496
682,285958045.03981867
695,2152596.062138885
709,363853139.71497419
733,363853139.71497419
760,23988000.0
785,0.0
798,0.0
2,2, 1, 2, 0,18, 0.00,60.00,Tuesday
342,21.0
343,24.0
382,21.0
383,24.0
422,21.0
423,90.0
462,21.0
463,24.0
502,21.0
503,24.0
1530,76917181.56665175
1531,0.0
1532,256857622.7039135
1533,0.0
1534,32872448.22450546
1535,0.0
1536,39231474.838272158
1537,0.0
9,406495292.54168727
45,240258472.78500004
182,38775735.39708
294,124820784.21561738
319,0.0
629,89005477.69531496
682,319388357.1875472
695,2473606.6642922449
709,406300962.2093012
733,406300962.2093012
760,35982000.0
785,0.0
798,0.0
2,2, 1, 2, 0,19, 0.00,60.00,Tuesday
342,21.0
343,24.0
382,21.0
383,24.0
422,21.0
423,90.0
462,21.0
463,24.0
502,21.0
503,24.0
1530,79641537.92766434
1531,0.0
1532,269838481.09583857
1533,0.0
1534,35194582.18030434
1535,0.0
1536,41123262.97386108
1537,0.0
9,322301606.35358425
45,160172315.18999998
182,34467320.35296
294,147625809.36887048
319,0.0
629,89005477.69531496
682,339508380.4828932
695,2674493.1153093406
709,431838317.1379281
733,431838317.1379281
760,35982000.0
785,0.0
798,0.0
2,2, 1, 2, 0,20, 0.00,60.00,Tuesday
342,21.0
343,24.0
382,21.0
383,24.0
422,21.0
423,90.0
462,21.0
463,24.0
502,21.0
503,24.0
1530,79044844.64765486
1531,0.0
1532,274209741.4459572
1533,0.0
1534,35726206.85633533
1535,0.0
1536,41606569.971226457
1537,0.0
9,322441964.19239166
45,160172315.18999998
182,34467320.35296
294,163186896.58826206
319,0.0
629,89005477.69531496
682,344438237.0652011
695,2814850.9541167428
709,437978700.1424159
733,437978700.1424159
760,35982000.0
785,0.0
798,0.0
2,2, 1, 2, 0,21, 0.00,60.00,Tuesday
342,21.0
343,24.0
382,21.0
383,24.0
422,21.0
423,90.0
462,21.0
463,24.0
502,21.0
503,24.0
1530,78804725.67921803
1531,0.0
1532,274197089.15239158
1533,0.0
1534,36213311.55882938
1535,0.0
1536,41563567.39164108
1537,0.0
9,291488759.23793247
45,133476929.325
182,30158905.30883999
294,170874895.32383824
319,0.0
629,89005477.69531496
682,344680163.88077327
695,2865446.908777427
709,438223996.1179433
733,438223996.1179433
760,35982000.0
785,0.0
798,0.0
2,2, 1, 2, 0,22, 0.00,60.00,Tuesday
342,15.600000000000002
343,30.000000000000005
382,15.600000000000002
383,30.000000000000005
422,15.600000000000002
423,90.0
462,15.600000000000002
463,30.000000000000005
502,15.600000000000002
503,30.000000000000005
1530,7196857.096884489
1531,0.0
1532,0.0
1533,0.0
1534,0.0
1535,0.0
1536,3506361.094568859
1537,0.0
9,107222473.84831728
45,53390771.73
182,17233660.17648
294,10631314.73599777
319,0.0
629,616041.9418372938
682,10087176.24961625
695,0.0
709,12932277.243097756
733,12932277.243097756
760,35982000.0
785,0.0
798,0.0
2,2, 1, 2, 0,23, 0.00,60.00,Tuesday
342,15.6
343,30.0
382,15.6
383,30.0
422,15.6
423,90.0
462,15.6
463,30.0
502,15.6
503,30.0
1530,24461986.149351684
1531,0.0
1532,0.0
1533,0.0
1534,13300605.755741824
1535,0.0
1536,11850619.606322514
1537,0.0
9,60535938.58734736
45,13347692.9325
182,8616830.08824
294,49338642.24339471
319,0.0
629,2589415.566607362
682,47023795.94480915
695,0.0
709,60286917.87796045
733,60286917.87796045
760,35982000.0
785,0.0
798,0.0
2,2, 1, 2, 0,24, 0.00,60.00,Tuesday
342,15.6
343,30.0
382,15.6
383,30.0
422,15.6
423,90.0
462,15.6
463,30.0
502,15.6
503,30.0
1530,45955269.16573875
1531,0.0
1532,26622466.378006184
1533,0.0
1534,15030859.71882277
1535,0.0
1536,22277123.061642678
1537,0.0
9,64171599.34391127
45,13347692.9325
182,8616830.08824
294,108872191.0272845
319,0.0
629,6210702.721340725
682,103700456.10742754
695,14373.601830550155
709,132930875.00717563
733,132930875.00717563
760,35982000.0
785,0.0
798,0.0
2,3, 1, 3, 0, 1, 0.00,60.00,Wednesday
342,15.6
343,30.0
382,15.6
383,30.0
422,15.6
423,90.0
462,15.6
463,30.0
502,15.6
503,30.0
1530,38040120.47296758
1531,0.0
1532,46904857.00329374
1533,0.0
1534,22823168.06401224
1535,0.0
1536,18505771.826961474
1537,0.0
9,65383670.60165496
45,13347692.9325
182,8616830.08824
294,125487890.42773792
319,0.0
629,7156720.508531426
682,119439124.81631136
695,280427.0723835388
709,152767561.21016387
733,152767561.21016387
760,35982000.0
785,0.0
798,0.0
2,3, 1, 3, 0, 2, 0.00,60.00,Wednesday
342,15.6
343,30.0
382,15.6
383,30.0
422,15.6
423,90.0
462,15.6
463,30.0
502,15.6
503,30.0
1530,54442596.27411069
1531,0.0
1532,63672195.07084441
1533,0.0
1534,18328683.263480598
1535,0.0
1536,26545911.943303918
1537,0.0
9,67932232.07957925
45,13347692.9325
182,8616830.08824
294,162036327.04892908
319,0.0
629,9486133.954492234
682,154044328.58681903
695,499575.1043470149
709,196852248.0544513
733,196852248.0544513
760,35982000.0
785,0.0
798,0.0
2,3, 1, 3, 0, 3, 0.00,60.00,Wednesday
342,15.6
343,30.0
382,15.6
383,30.0
422,15.6
423,90.0
462,15.6
463,30.0
502,15.6
503,30.0
1530,41414262.58989786
1531,0.0
1532,63883119.77154045
1533,0.0
1534,25308121.341083107
1535,0.0
1536,20286906.82521425
1537,0.0
9,67197378.27170883
45,13347692.9325
182,8616830.08824
294,150155429.94116483
319,0.0
629,8633389.726332164
682,142917987.2112647
695,617465.5246366821
709,182436566.2649077
733,182436566.2649077
760,35982000.0
785,0.0
798,0.0
2,3, 1, 3, 0, 4, 0.00,60.00,Wednesday
342,15.6
343,30.0
382,15.6
383,30.0
422,15.6
423,90.0
462,15.6
463,30.0
502,15.6
503,30.0
1530,57525943.13925727
1531,0.0
1532,77041609.23485993
1533,0.0
1534,19611392.96084041
1535,0.0
1536,28195796.135082429
1537,0.0
9,69319791.66165155
45,13347692.9325
182,8616830.08824
294,181378670.45915783
319,0.0
629,10662428.810951435
682,172464653.3742736
695,710839.829960136
709,220197196.85168395
733,220197196.85168395
760,35982000.0
785,0.0
798,0.0
2,3, 1, 3, 0, 5, 0.00,60.00,Wednesday
342,15.6
343,30.0
382,15.6
383,30.0
422,15.6
423,90.0
462,15.6
463,30.0
502,15.6
503,30.0
1530,46930524.40334538
1531,0.0
1532,85201554.75320407
1533,0.0
1534,28988915.966583745
1535,0.0
1536,22873479.12444033
1537,0.0
9,69372098.8585033
45,13347692.9325
182,8616830.08824
294,182900984.3244133
319,0.0
629,10599863.635010343
682,174261823.70054085
695,825712.2027529539
709,222353989.09972806
733,222353989.09972806
760,35982000.0
785,0.0
798,0.0
2,3, 1, 3, 0, 6, 0.00,60.00,Wednesday
342,15.6
343,30.0
382,15.6
383,30.0
422,15.6
423,90.0
462,15.6
463,30.0
502,15.6
503,30.0
1530,70221272.26745717
1531,0.0
1532,108275062.96058563
1533,0.0
1534,23967156.576668219
1535,0.0
1536,34222387.20507332
1537,0.0
9,72831393.03682265
45,13347692.9325
182,8616830.08824
294,234982556.891964
319,0.0
629,13915172.47835957
682,223781904.95437367
695,969697.5377230927
709,285656676.175193
733,285656676.175193
760,35982000.0
785,0.0
798,0.0
2,3, 1, 3, 0, 7, 0.00,60.00,Wednesday
342,21.0
343,24.0
382,21.0
383,24.0
422,21.0
423,90.0
462,21.0
463,24.0
502,21.0
503,24.0
1530,158643101.38002677
1531,0.0
1532,570236394.1781046
1533,0.0
1534,85378476.59636677
1535,0.0
1536,82897884.87627952
1537,0.0
9,154290933.81319855
45,13347692.9325
182,8616830.08824
294,577896785.12121
319,0.0
629,89005477.69531496
682,815530813.3178308
695,7338933.097143611
709,1036143436.1803682
733,1036143436.1803682
760,35982000.0
785,0.0
798,0.0
2,3, 1, 3, 0, 8, 0.00,60.00,Wednesday
342,21.0
343,24.0
382,21.0
383,24.0
422,21.0
423,90.0
462,21.0
463,24.0
502,21.0
503,24.0
1530,128003248.31065738
1531,0.0
1532,472084448.75461027
1533,0.0
1534,66334436.782566878
1535,0.0
1536,69236961.91169697
1537,0.0
9,177225506.22172193
45,53390771.73
182,17233660.17648
294,415475608.81903216
319,0.0
629,89005477.69531496
682,652296715.5693623
695,5601596.619926957
709,829096306.3454298
733,829096306.3454298
760,11994000.0
785,0.0
798,0.0
2,3, 1, 3, 0, 9, 0.00,60.00,Wednesday
342,21.0
343,24.0
382,21.0
383,24.0
422,21.0
423,90.0
462,21.0
463,24.0
502,21.0
503,24.0
1530,118988969.96062008
1531,0.0
1532,435074058.35744157
1533,0.0
1534,58226958.12376194