Program Version,EnergyPlus, Version 9.2.0-921312fa1d, YMD=2020.12.22 18:27
1,5,Environment Title[],Latitude[deg],Longitude[deg],Time Zone[],Elevation[m]
2,8,Day of Simulation[],Month[],Day of Month[],DST Indicator[1=yes 0=no],Hour[],StartMinute[],EndMinute[],DayType
3,5,Cumulative Day of Simulation[],Month[],Day of Month[],DST Indicator[1=yes 0=no],DayType  ! When Daily Meters Requested
4,2,Cumulative Days of Simulation[],Month[]  ! When Monthly Meters Requested
5,1,Cumulative Days of Simulation[] ! When Run Period Meters Requested
6,1,Calendar Year of Simulation[] ! When Annual Meters Requested
9,1,Electricity:Facility [J] !Hourly
1021,1,Heating:Electricity [J] !Hourly
968,1,Cooling:Electricity [J] !Hourly
45,1,InteriorLights:Electricity [J] !Hourly
918,1,ExteriorLights:Electricity [J] !Hourly
107,1,InteriorEquipment:Electricity [J] !Hourly
878,1,Fans:Electricity [J] !Hourly
1039,1,Pumps:Electricity [J] !Hourly
304,1,Refrigeration:Electricity [J] !Hourly
170,1,Gas:Facility [J] !Hourly
1008,1,Heating:Gas [J] !Hourly
206,1,InteriorEquipment:Gas [J] !Hourly
486,1,WaterSystems:Gas [J] !Hourly
623,1,Heating:EnergyTransfer [J] !Hourly
648,1,Cooling:EnergyTransfer [J] !Hourly
729,1,WaterSystems:EnergyTransfer [J] !Hourly
279,1,Refrigeration:EnergyTransfer [J] !Hourly
983,1,HeatingCoils:EnergyTransfer [J] !Hourly
955,1,CoolingCoils:EnergyTransfer [J] !Hourly
End of Data Dictionary
1,RUNPERIOD 1,  41.98, -87.92,  -6.00, 201.00
2,1, 1, 1, 0, 1, 0.00,60.00,Holiday
9,57079540.15301194
45,12027720.822196469
107,20077200.0
170,313286116.38223227
206,10803960.0
279,11951761.029609798
304,4985602.338293168
486,8321776.366844444
623,50391632.06128265
648,0.0
729,6438157.441070281
878,9322216.98862597
918,10666800.0
955,0.0
968,0.0
983,229445096.41200254
1008,294160380.0153878
1021,0.0
1039,0.0038963294037087329
2,1, 1, 1, 0, 2, 0.00,60.00,Holiday
9,43226285.305564548
45,4009240.274065489
107,18000000.0
170,185134526.7923283
206,10803960.0
279,9910823.72220791
304,4435249.503695169
486,72000.0
623,22029852.518807487
648,0.0
729,0.0
878,6114995.527803886
918,10666800.0
955,0.0
968,0.0
983,135921682.09801609
1008,174258566.7923283
1021,0.0
1039,0.0
2,1, 1, 1, 0, 3, 0.00,60.00,Holiday
9,44010584.944261778
45,4009240.274065489
107,18000000.0
170,217485466.7565463
206,10803960.0
279,9361261.564673728
304,4342881.928726806
486,2131537.496155694
623,32565209.978331239
648,0.0
729,0.0
878,6991662.741469477
918,10666800.0
955,0.0
968,0.0
983,159548976.02310468
1008,204549969.2603906
1021,0.0
1039,0.0
2,1, 1, 1, 0, 4, 0.00,60.00,Holiday
9,41674700.182937089
45,4009240.274065489
107,18000000.0
170,151943646.25275816
206,10803960.0
279,9329334.061842062
304,4337551.414558609
486,72000.0
623,25764988.79276895
648,0.0
729,0.0
878,4661108.494312985
918,10666800.0
955,0.0
968,0.0
983,110032795.27715138
1008,141067686.25275816
1021,0.0
1039,0.0
2,1, 1, 1, 0, 5, 0.00,60.00,Holiday
9,44410238.291770089
45,4009240.274065489
107,18000000.0
170,227901062.79175914
206,10803960.0
279,10873193.160425602
304,4742535.276235113
486,2131532.1936074246
623,42510029.05788849
648,0.0
729,0.0
878,6991662.741469477
918,10666800.0
955,0.0
968,0.0
983,167673145.06655834
1008,214965570.5981517
1021,0.0
1039,0.0
2,1, 1, 1, 0, 6, 0.00,60.00,Holiday
9,57482197.03097919
45,12027720.822196469
107,20077200.0
170,329129052.20691207
206,16205939.999999999
279,13543806.774521266
304,5388259.220156742
486,72000.0
623,49134969.050857249
648,0.0
729,0.0
878,9322216.98862597
918,10666800.0
955,0.0
968,0.0
983,244023867.5213914
1008,312851112.20691207
1021,0.0
1039,0.0
2,1, 1, 1, 0, 7, 0.00,60.00,Holiday
9,115061856.08212856
45,24055441.644392939
107,65077200.0
170,330651619.0251304
206,48617819.99999999
279,15174805.037780114
304,5940197.446769385
486,6256167.550170063
623,20561960.54000868
648,0.0
729,3862880.628187171
878,9322216.98862597
918,10666800.0
955,0.0
968,0.0
983,215106552.5504691
1008,275777631.4749603
1021,0.0
1039,0.002340284807525769
2,1, 1, 1, 0, 8, 0.00,60.00,Holiday
9,106877472.2148393
45,24055441.644392939
107,65077200.0
170,337731381.8144881
206,75627720.0
279,14514533.799602308
304,5755913.579480021
486,6256307.515428985
623,8342896.728239177
648,863536.6893098347
729,3862889.1126799399
878,9322216.98862597
918,2666700.0
955,0.0
968,0.0
983,199560936.35326613
1008,255847354.29905913
1021,0.0
1039,0.002340378043431777
2,1, 1, 1, 0, 9, 0.00,60.00,Holiday
9,86210717.42575017
45,24055441.644392939
107,47077200.0
170,305496378.3141021
206,54019800.0
279,14514752.726466712
304,5755858.79038971
486,4195470.907597379
623,6905791.987065644
648,58837.588881321426
729,3862888.4843544655
878,9322216.98862597
918,0.0
955,0.0
968,0.0
983,192879263.7770737
1008,247281107.40650476
1021,0.0
1039,0.002341559580203861
2,1, 1, 1, 0,10, 0.00,60.00,Holiday
9,86246490.55401191
45,24055441.644392939
107,47077200.0
170,286956161.3689728
206,54019800.0
279,14730257.498349365
304,5791631.918653579
486,6256930.034453268
623,3965504.547033291
648,1324121.2216102887
729,3862876.8447507314
878,9322216.98862597
918,0.0
955,0.0
968,0.0
983,176809956.44092519
1008,226679431.3345195
1021,0.0
1039,0.0023394383865147285
2,1, 1, 1, 0,11, 0.00,60.00,Holiday
9,104222708.12477185
45,24055441.644392939
107,65077200.0
170,333426336.11470708
206,118843560.0
279,14582632.80580141
304,5767849.483950666
486,18685125.8857835
623,763564.7158667736
648,9660134.823089095
729,12876308.578714373
878,9322216.98862597
918,0.0
955,0.0
968,0.0
983,152800167.17856039
1008,195897650.2289236
1021,0.0
1039,0.0078022949443654139
2,1, 1, 1, 0,12, 0.00,60.00,Holiday
9,108388968.01277173
45,24055441.644392939
107,65077200.0
170,327448988.598311
206,145853460.00000004
279,17515305.239589968
304,9934109.37195583
486,16606423.407701076
623,0.0
648,21796688.029034769
729,12876314.878430993
878,9322216.98862597
918,0.0
955,0.0
968,0.0
983,128691502.04867572
1008,164989105.1906099
1021,0.0
1039,0.007797007750107101
2,1, 1, 1, 0,13, 0.00,60.00,Holiday
9,105020862.39420426
45,24055441.644392939
107,65077200.0
170,288248701.1971895
206,129647519.99999999
279,17915644.79503417
304,6566003.754943125
486,12467364.10982419
623,0.0
648,27757625.348890656
729,10301025.542746608
878,9322216.98862597
918,0.0
955,0.0
968,0.0
983,113984377.32814497
1008,146133817.08736534
1021,0.0
1039,0.006242243221793305
2,1, 1, 1, 0,14, 0.00,60.00,Holiday
9,104299440.21673042
45,24055441.644392939
107,65077200.0
170,265314441.28918369
206,113441580.0
279,15032729.839004558
304,5844581.577473534
486,14535187.091582904
623,0.0
648,27340772.614172155
729,10300981.059749958
878,9322216.98862597
918,0.0
955,0.0
968,0.0
983,107123385.87412863
1008,137337674.19760079
1021,0.0
1039,0.006237990180838088
2,1, 1, 1, 0,15, 0.00,60.00,Holiday
9,86324821.52797064
45,24055441.644392939
107,47077200.0
170,232594151.94052945
206,75627720.0
279,15187743.646202373
304,5869962.890271805
486,10392951.222324284
623,0.0
648,17406476.586131645
729,7725787.488385048
878,9322216.98862597
918,0.0
955,0.0
968,0.0
983,114327314.96020003
1008,146573480.71820516
1021,0.0
1039,0.004679948690450627
2,1, 1, 1, 0,16, 0.00,60.00,Holiday
9,86284017.15187077
45,24055441.644392939
107,47077200.0
170,231096890.25598616
206,70225740.0
279,14943953.30364366
304,5829158.514170509
486,10391914.062211674
623,0.0
648,14393601.900225016
729,7725787.886125701
878,9322216.98862597
918,0.0
955,0.0
968,0.0
983,117373804.23114409
1008,150479236.19377447
1021,0.0
1039,0.004681362278982094
2,1, 1, 1, 0,17, 0.00,60.00,Holiday
9,93997354.30740556
45,24055441.644392939
107,47077200.0
170,244399579.19568116
206,81029700.0
279,13221921.65878604
304,5542395.669705829
486,12457442.335506754
623,0.0
648,14075017.291791877
729,7725787.5297535839
878,9322216.98862597
918,8000100.0
955,0.0
968,0.0
983,117711700.750936
1008,150912436.8601744
1021,0.0
1039,0.004680833613244471
2,1, 1, 1, 0,18, 0.00,60.00,Holiday
9,114673387.2111813
45,24055441.644392939
107,65077200.0
170,250761307.36225713
206,91833660.00000002
279,13275655.218233902
304,5551728.571923928
486,12465067.377936086
623,0.0
648,20049041.293128235
729,10300967.583668426
878,9322216.98862597
918,10666800.0
955,0.0
968,0.0
983,114240812.38777042
1008,146462579.98432104
1021,0.0
1039,0.006238476148627315
2,1, 1, 1, 0,19, 0.00,60.00,Holiday
9,114679342.44619112
45,24055441.644392939
107,65077200.0
170,252272625.922132
206,91833660.00000002
279,13309935.64507028
304,5557683.805369589
486,16616178.862464562
623,0.0
648,25689132.293974919
729,12876314.488903439
878,9322216.98862597
918,10666800.0
955,0.0
968,0.0
983,112181773.9065406
1008,143822787.05966745
1021,0.0
1039,0.007802620630097814
2,1, 1, 1, 0,20, 0.00,60.00,Holiday
9,115198517.2338666
45,24055441.644392939
107,65077200.0
170,248650161.40626408
206,91833660.00000002
279,15534014.196863704
304,6076858.593050026
486,18677420.718423238
623,0.0
648,26814551.23171947
729,12876314.901541822
878,9322216.98862597
918,10666800.0
955,0.0
968,0.0
983,107748482.93651587
1008,138139080.68784083
1021,0.0
1039,0.007797676484093877
2,1, 1, 1, 0,21, 0.00,60.00,Holiday
9,97161887.30887103
45,24055441.644392939
107,47077200.0
170,239392672.36613954
206,81029700.0
279,15372087.636290212
304,6040228.669610976
486,12466832.768073263
623,0.0
648,20530986.445602098
729,10301040.275508766
878,9322216.98862597
918,10666800.0
955,0.0
968,0.0
983,113798988.88649172
1008,145896139.59806628
1021,0.0
1039,0.0062411693562599069
2,1, 1, 1, 0,22, 0.00,60.00,Holiday
9,96932729.82273256
45,24055441.644392939
107,47077200.0
170,241050853.86673296
206,75627720.0
279,14389736.369387864
304,5811071.181913802
486,18679905.924459038
623,0.0
648,18881842.593168267
729,12876299.91595787
878,9322216.98862597
918,10666800.0
955,0.0
968,0.0
983,114459717.79497367
1008,146743227.9422739
1021,0.0
1039,0.007799855072073326
2,1, 1, 1, 0,23, 0.00,60.00,Holiday
9,96559102.04837935
45,24055441.644392939
107,47077200.0
170,231255123.98687706
206,64823759.99999999
279,12789050.782523865
304,5437443.409120722
486,12466119.40279318
623,0.0
648,14243276.49284108
729,10301039.818777755
878,9322216.98862597
918,10666800.0
955,0.0
968,0.0
983,120092890.77558545
1008,153965244.5840839
1021,0.0
1039,0.006239731757054922
2,1, 1, 1, 0,24, 0.00,60.00,Holiday
9,100875660.80608315
45,24055441.644392939
107,47077200.0
170,184573560.62499798
206,10803960.0
279,16434662.027531349
304,9754002.169946062
486,8321992.026993478
623,1514315.1741729775
648,8256618.089885756
729,5150520.852490572
878,9322216.98862597
918,10666800.0
955,0.0
968,0.0
983,129049134.7064435
1008,165447608.59800447
1021,0.0
1039,0.003118197985222619
2,2, 1, 2, 0, 1, 0.00,60.00,Monday
9,57796059.5854401
45,12027720.822196469
107,20077200.0
170,250324826.48923517
206,10803960.0
279,15018300.871743592
304,5702121.771492967
486,6257627.538496769
623,37046478.82802296
648,0.0
729,5159922.662114087
878,9322216.98862597
918,10666800.0
955,0.0
968,0.0
983,181945326.38157595
1008,233263238.95073838
1021,0.0
1039,0.003124686972107765
2,2, 1, 2, 0, 2, 0.00,60.00,Monday
9,42635999.704927589
45,4009240.274065489
107,18000000.0
170,108086210.86702952
206,10803960.0
279,10354259.627023332
304,4510836.545102924
486,2131536.478362732
623,6441578.854227444
648,0.0
729,0.0
878,5449122.885759173
918,10666800.0
955,0.0
968,0.0
983,74217557.22316009
1008,95150714.38866678
1021,0.0
1039,0.0
2,2, 1, 2, 0, 3, 0.00,60.00,Monday
9,44092767.672089207
45,4009240.274065489
107,18000000.0
170,139786668.39813055
206,10803960.0
279,9843851.480068258
304,4425064.656554235
486,72000.0
623,14229971.311303217
648,0.0
729,0.0
878,6991662.741469477
918,10666800.0
955,0.0
968,0.0
983,100550352.55054182
1008,128910708.39813054
1021,0.0
1039,0.0
2,2, 1, 2, 0, 4, 0.00,60.00,Monday
9,41753668.345701
45,4009240.274065489
107,18000000.0
170,102096601.26694072
206,10803960.0
279,9793107.805518467
304,4416519.577322524
486,2131531.180062023
623,12279868.241767083
648,0.0
729,0.0
878,4661108.494312985
918,10666800.0
955,0.0
968,0.0
983,69545665.86776537
1008,89161110.08687869
1021,0.0
1039,0.0
2,2, 1, 2, 0, 5, 0.00,60.00,Monday
9,44560928.80565365
45,4009240.274065489
107,18000000.0
170,137021226.49244429
206,10803960.0
279,11763905.947391225
304,4893225.790118678
486,72000.0
623,18290156.104518005
648,0.0
729,0.0
878,6991662.741469476
918,10666800.0
955,0.0
968,0.0
983,98393307.86410654
1008,126145266.49244426
1021,0.0
1039,0.0
2,2, 1, 2, 0, 6, 0.00,60.00,Monday
9,57498186.30279948
45,12027720.822196469
107,20077200.0
170,229423074.27546729
206,16205939.999999999
279,13632009.678508476
304,5404248.491977035
486,2131392.8573926456
623,32482024.3331425
648,0.0
729,0.0
878,9322216.98862597
918,10666800.0
955,0.0
968,0.0
983,164646878.30609823
1008,211085741.41807465
1021,0.0
1039,0.0
2,2, 1, 2, 0, 7, 0.00,60.00,Monday
9,115092377.93012738
45,24055441.644392939
107,65077200.0
170,225695360.06575037
206,48617819.99999999
279,15350677.334104103
304,5970719.29476608
486,6256737.559633099
623,6521249.89237093
648,3002693.8368838925
729,3869931.749282177
878,9322216.98862597
918,10666800.0
955,0.0
968,0.0
983,133240225.95477149
1008,170820802.50611729
1021,0.0
1039,0.002342427709231595
2,2, 1, 2, 0, 8, 0.00,60.00,Monday
9,106930601.84627208
45,24055441.644392939
107,65077200.0
170,244953935.936644
206,75627720.0
279,14819297.975653904
304,5809043.203890116
486,18695671.233013337
623,0.0
648,10991094.317106409
729,15479753.15182861
878,9322216.98862597
918,2666700.0
955,0.0
968,0.0
983,117491824.8688319
1008,150630544.70363067
1021,0.0
1039,0.009363080145592555
2,2, 1, 2, 0, 9, 0.00,60.00,Monday
9,86261394.29858166
45,24055441.644392939
107,47077200.0
170,222900375.33530654
206,54019800.0
279,14804850.393636277
304,5806535.656979203
486,18687831.350136784
623,0.0
648,8851226.72568592
729,14189787.377631506
878,9322216.98862597
918,0.0
955,0.0
968,0.0
983,117150340.30843237
1008,150192743.9851697
1021,0.0
1039,0.008583568576616935
2,2, 1, 2, 0,10, 0.00,60.00,Monday
9,86309180.12600979
45,24055441.644392939
107,47077200.0
170,216442307.1404133
206,54019800.0
279,15015500.080169619
304,5854321.485970497
486,16607454.649398996
623,137197.71558243084
648,8424052.50601733
729,11609796.262034517
878,9322216.98862597
918,0.0
955,0.0
968,0.0
983,113735740.94299118
1008,145815052.4910143
1021,0.0
1039,0.007020391410930419
2,2, 1, 2, 0,11, 0.00,60.00,Monday
9,104320268.68235743
45,24055441.644392939
107,65077200.0
170,260187623.45674516
206,118843560.0
279,14891965.650340636
304,5865410.043093739
486,14531228.920617409
623,0.0
648,17049407.491921218
729,10319798.76972742
878,9322216.98862597
918,0.0
955,0.0
968,0.0
983,98914010.93817964
1008,126812834.53612773
1021,0.0
1039,0.006244803108631244
2,2, 1, 2, 0,12, 0.00,60.00,Monday
9,108458186.22769113
45,24055441.644392939
107,65077200.0
170,268197988.64895917
206,145853460.00000004
279,17757332.853768708
304,10003327.587652287
486,14540610.754588129
623,0.0
648,29155090.66974519
729,11609766.081060868
878,9322216.98862597
918,0.0
955,0.0
968,0.0
983,84087055.9576094
1008,107803917.894371
1021,0.0
1039,0.007019962884379149
2,2, 1, 2, 0,13, 0.00,60.00,Monday
9,105116619.09453658
45,24055441.644392939
107,65077200.0
170,240977703.15777178
206,129647519.99999999
279,18141306.143242
304,6661760.455274549
486,14533333.522723118
623,0.0
648,37773068.3853435
729,10319830.402102037
878,9322216.98862597
918,0.0
955,0.0
968,0.0
983,75501542.71533798
1008,96796849.63504869
1021,0.0
1039,0.006243135021331618
2,2, 1, 2, 0,14, 0.00,60.00,Monday
9,104369541.87847092
45,24055441.644392939
107,65077200.0
170,235237044.67058087
206,113441580.0
279,15311674.170093406
304,5914683.239989242
486,12461538.759264976
623,0.0
648,35173816.62164836
729,9029856.15854009
878,9322216.98862597
918,0.0
955,0.0
968,0.0
983,85280462.2108264
1008,109333925.91131586
1021,0.0
1039,0.0054627665377443598
2,2, 1, 2, 0,15, 0.00,60.00,Monday
9,86384454.25820662
45,24055441.644392939
107,47077200.0
170,222888322.5267118
206,75627720.0
279,15531145.08803207
304,5929595.6205061119
486,10391174.179272112
623,0.0
648,20491481.459295393
729,7739883.001739459
878,9322216.98862597
918,0.0
955,0.0
968,0.0
983,106758154.11100297
1008,136869428.3474397
1021,0.0
1039,0.004681618304605395
2,2, 1, 2, 0,16, 0.00,60.00,Monday
9,86344852.5274972
45,24055441.644392939
107,47077200.0
170,219849269.9112869
206,70225740.0
279,15250258.967924906
304,5889993.889797528
486,10392375.787611466
623,0.0
648,15151407.24349739
729,7739883.948247934
878,9322216.98862597
918,0.0
955,0.0
968,0.0
983,108600300.21646683
1008,139231154.1236754
1021,0.0
1039,0.004680776239623687
2,2, 1, 2, 0,17, 0.00,60.00,Monday
9,94066603.8487541
45,24055441.644392939
107,47077200.0
170,225421798.0065791
206,81029700.0
279,13503309.5357742
304,5611645.211053709
486,10391405.944596693
623,0.0
648,16251329.363697153
729,7739882.925752828
878,9322216.98862597
918,8000100.0
955,0.0
968,0.0
983,104520539.8083463
1008,134000692.06198243
1021,0.0
1039,0.0046814915043688599
2,2, 1, 2, 0,18, 0.00,60.00,Monday
9,114730523.79128732
45,24055441.644392939
107,65077200.0
170,233197545.39453439
206,91833660.00000002
279,13590009.62028696
304,5608865.152025749
486,14533894.155739272
623,0.0
648,26869274.37323465
729,10319816.532720762
878,9322216.98862597
918,10666800.0
955,0.0
968,0.0
983,98927393.16626019
1008,126829991.23879507
1021,0.0
1039,0.006242673594563748
2,2, 1, 2, 0,19, 0.00,60.00,Monday
9,114743559.43041459
45,24055441.644392939
107,65077200.0
170,230857824.5750298
206,91833660.00000002
279,13635709.20012212
304,5621900.788812223
486,18686887.463797496
623,0.0
648,29940443.076366128
729,14189787.148440559
878,9322216.98862597
918,10666800.0
955,0.0
968,0.0
983,93863076.14676117
1008,120337277.11123228
1021,0.0
1039,0.008583473593944773
2,2, 1, 2, 0,20, 0.00,60.00,Monday
9,115283033.08041433
45,24055441.644392939
107,65077200.0
170,224413245.34334518
206,91833660.00000002
279,15842165.271048267
304,6161374.438030753
486,20765385.212618013
623,0.0
648,31505538.06581058
729,15479762.001204603
878,9322216.98862597
918,10666800.0
955,0.0
968,0.0
983,87215076.10196719
1008,111814200.13072714
1021,0.0
1039,0.009364685030244022
2,2, 1, 2, 0,21, 0.00,60.00,Monday
9,97262999.62684071
45,24055441.644392939
107,47077200.0
170,211940232.21898736
206,81029700.0
279,15665752.977506558
304,6141340.986020872
486,16608197.038970486
623,0.0
648,25823589.421584995
729,12899807.243891398
878,9322216.98862597
918,10666800.0
955,0.0
968,0.0
983,89155821.44041316
1008,114302335.18001686
1021,0.0
1039,0.007800943166502343
2,2, 1, 2, 0,22, 0.00,60.00,Monday
9,97051660.56428093
45,24055441.644392939
107,47077200.0
170,205654820.99295927
206,75627720.0
279,14686490.560230803
304,5930001.922678746
486,18688427.55503291
623,0.0
648,24578738.380926797
729,14189787.422130425
878,9322216.98862597
918,10666800.0
955,0.0
968,0.0
983,86844165.28158257
1008,111338673.43792635
1021,0.0
1039,0.008583301716600422
2,2, 1, 2, 0,23, 0.00,60.00,Monday
9,96638216.45274517
45,24055441.644392939
107,47077200.0
170,208179507.92484189
206,64823759.99999999
279,13088923.67033595
304,5516557.812700815
486,14535366.157493685
623,0.0
648,18838477.772915737
729,11609792.093414348
878,9322216.98862597
918,10666800.0
955,0.0
968,0.0
983,100479897.77853161
1008,128820381.7673482
1021,0.0
1039,0.0070254802487867838
2,2, 1, 2, 0,24, 0.00,60.00,Monday
9,100918106.66095123
45,24055441.644392939
107,47077200.0
170,167557540.99297304
206,10803960.0
279,16689337.152051796
304,9796448.024032804
486,10386753.923382383
623,0.0
648,10618739.999803894
729,6449903.498463784
878,9322216.98862597
918,10666800.0
955,0.0
968,0.0
983,114166125.11428073
1008,146366827.06959067
1021,0.0
1039,0.0038995415312423535
2,3, 1, 3, 0, 1, 0.00,60.00,Tuesday
9,57839634.19367537
45,12027720.822196469
107,20077200.0
170,212634171.9472205
206,10803960.0
279,15285715.381665864
304,5745696.37972911
486,6258464.374226453
623,27778812.931935707
648,0.0
729,5169124.87859799
878,9322216.98862597
918,10666800.0
955,0.0
968,0.0
983,152545963.10693539
1008,195571747.57299409
1021,0.0
1039,0.0031238144222474788
2,3, 1, 3, 0, 2, 0.00,60.00,Tuesday
9,37283649.803260188
45,4009240.274065489
107,18000000.0
170,12935457.703218222
206,10803960.0
279,10923277.026111016
304,4607609.529194695
486,2131497.7032182218
623,0.0
648,0.0
729,0.0
878,0.0
918,10666800.0
955,0.0
968,0.0
983,0.0
1008,0.0
1021,0.0
1039,0.0
2,3, 1, 3, 0, 3, 0.00,60.00,Tuesday
9,43458046.940414149
45,4009240.274065489
107,18000000.0
170,99287500.99522236
206,10803960.0
279,10374851.441227023
304,4528124.925552262
486,72000.0
623,5718640.22158071
648,0.0
729,0.0
878,6253881.740796398
918,10666800.0
955,0.0
968,0.0
983,68961001.97627345
1008,88411540.99522236
1021,0.0
1039,0.0
2,3, 1, 3, 0, 4, 0.00,60.00,Tuesday
9,44173980.96148446
45,4009240.274065489
107,18000000.0
170,115367082.2794125
206,10803960.0
279,10276583.199258239
304,4506277.945949495
486,2131518.959292744
623,10006674.58584302
648,0.0
729,0.0
878,6991662.741469477
918,10666800.0
955,0.0
968,0.0
983,79896650.5896934
1008,102431603.32011974
1021,0.0
1039,0.0
2,3, 1, 3, 0, 5, 0.00,60.00,Tuesday
9,44209692.82551307
45,4009240.274065489
107,18000000.0
170,85461494.12455207
206,10803960.0
279,20374712.35851756
304,6872544.0571345989
486,72000.0
623,8717523.121490378
648,0.0
729,0.0
878,4661108.494312985
918,10666800.0
955,0.0
968,0.0
983,58176716.617150608
1008,74585534.12455207
1021,0.0
1039,0.0
2,3, 1, 3, 0, 6, 0.00,60.00,Tuesday
9,59304436.51523853
45,12027720.822196469
107,20077200.0
170,237791893.32954476
206,16205939.999999999
279,21319273.229796988
304,7210498.7044160789
486,2131540.1632048788
623,34211875.216946799
648,0.0
729,0.0
878,9322216.98862597
918,10666800.0
955,0.0
968,0.0
983,171174442.2697451
1008,219454413.16633988
1021,0.0
1039,0.0
2,3, 1, 3, 0, 7, 0.00,60.00,Tuesday
9,115921705.04052554
45,24055441.644392939
107,65077200.0
170,243064571.08724893
206,48617819.99999999
279,18902145.499880136
304,6800046.405165934
486,4195208.496175243
623,7424410.762941259
648,2746863.3753914439
729,3876855.703888015
878,9322216.98862597
918,10666800.0
955,0.0
968,0.0
983,148396203.2210375
1008,190251542.5910737
1021,0.0
1039,0.0023407214948536014
2,3, 1, 3, 0, 8, 0.00,60.00,Tuesday
9,106929814.67485921
45,24055441.644392939
107,65077200.0
170,272566571.27266016
206,75627720.0
279,14814766.946709909
304,5808256.0324750109
486,20767184.414201116
623,124264.55241946315
648,9159958.917609513
729,15507424.576861494
878,9322216.98862597
918,2666700.0
955,0.0
968,0.0
983,137413900.14959804
1008,176171666.85845904
1021,0.0
1039,0.009365301578432883
2,3, 1, 3, 0, 9, 0.00,60.00,Tuesday
9,86256839.9346135
45,24055441.644392939
107,47077200.0
170,259343970.5125513
206,54019800.0
279,14778626.738482807
304,5801981.293008184
486,18688806.895674685
623,1528385.9975618274
648,6949569.537567966
729,14215138.867198164
878,9322216.98862597
918,0.0
955,0.0
968,0.0
983,145575583.62116383
1008,186635363.61687664
1021,0.0
1039,0.008586417274690395
2,3, 1, 3, 0,10, 0.00,60.00,Tuesday
9,86283877.14966631
45,24055441.644392939
107,47077200.0
170,263357890.4483745
206,54019800.0
279,14943166.318342846
304,5829018.509622823
486,16606173.844023547
623,2890014.4531292126
648,6283290.471246523
729,11630558.590968334
878,9322216.98862597
918,0.0
955,0.0
968,0.0
983,150330894.95139373
1008,192731916.60435093
1021,0.0
1039,0.007024593854411713
2,3, 1, 3, 0,11, 0.00,60.00,Tuesday
9,104262046.05751075
45,24055441.644392939
107,65077200.0
170,311157300.02106139
206,118843560.0
279,14808601.692769807
304,5807187.418244566
486,12467663.629221462
623,1101538.4026518602
648,12481054.060978262
729,10338251.158130302
878,9322216.98862597
918,0.0
955,0.0
968,0.0
983,140279939.58563514
1008,179846076.39183987
1021,0.0
1039,0.006247273467130466
2,3, 1, 3, 0,12, 0.00,60.00,Tuesday
9,108417443.56685105
45,24055441.644392939
107,65077200.0
170,322264388.28694036
206,145853460.00000004
279,17686158.56871918
304,9962584.9268107
486,16608888.246094896
623,0.0
648,23305731.346428496
729,11630500.823892167
878,9322216.98862597
918,0.0
955,0.0
968,0.0
983,124645591.23185939
1008,159802040.0408454
1021,0.0
1039,0.007021466705040331
2,3, 1, 3, 0,13, 0.00,60.00,Tuesday
9,105041194.76249215
45,24055441.644392939
107,65077200.0
170,287999947.275877
206,129647519.99999999
279,18045050.188133245
304,6586336.123227372
486,14532602.771366222
623,0.0
648,32212464.117569098
729,10338261.73283188
878,9322216.98862597
918,0.0
955,0.0
968,0.0
983,112179463.11351845
1008,143819824.50451083
1021,0.0
1039,0.006245897968582605
2,3, 1, 3, 0,14, 0.00,60.00,Tuesday
9,104323005.95339085
45,24055441.644392939
107,65077200.0
170,269708742.56239107
206,113441580.0
279,15168429.742072454
304,5868147.314907322
486,12461014.92154107
623,0.0
648,30971394.450421689
729,9045974.580689699
878,9322216.98862597
918,0.0
955,0.0
968,0.0
983,112168795.159863
1008,143806147.64084999
1021,0.0
1039,0.0054646283167701079
2,3, 1, 3, 0,15, 0.00,60.00,Tuesday
9,86341747.40045737
45,24055441.644392939
107,47077200.0
170,247213224.5161807
206,75627720.0
279,15285210.784622437
304,5886888.762755379
486,10392982.115848512
623,0.0
648,17390846.651367245
729,7753711.899997603
878,9322216.98862597
918,0.0
955,0.0
968,0.0
983,125730167.4722591
1008,161192522.40033219
1021,0.0
1039,0.004683077623249816
2,3, 1, 3, 0,16, 0.00,60.00,Tuesday
9,86292077.21470782
45,24055441.644392939
107,47077200.0
170,249528324.30663056
206,70225740.0
279,14990368.515760359
304,5837218.57700661
486,10392071.415568047
623,935776.9778711562
648,12300675.850192592
729,7753712.042649409
878,9322216.98862597
918,0.0
955,0.0
968,0.0
983,131750200.05502878
1008,168910512.89106254
1021,0.0
1039,0.004682326486144123
2,3, 1, 3, 0,17, 0.00,60.00,Tuesday
9,93999492.90763182
45,24055441.644392939
107,47077200.0
170,259851751.58392043
206,81029700.0
279,13234238.859131955
304,5544534.269929986
486,10393342.628290916
623,706474.8618474718
648,12467528.007455904
729,7753711.842635727
878,9322216.98862597
918,8000100.0
955,0.0
968,0.0
983,131374392.98539102
1008,168428708.9556295
1021,0.0
1039,0.00468293543883039
2,3, 1, 3, 0,18, 0.00,60.00,Tuesday
9,114680092.4190042
45,24055441.644392939
107,65077200.0
170,260200593.6735242
206,91833660.00000002
279,13314269.073683877
304,5558433.779740365
486,14533690.935279709
623,0.0
648,23149900.366966458
729,10338261.13399909
878,9322216.98862597
918,10666800.0
955,0.0
968,0.0
983,119989929.33583069
1008,153833242.73824448
1021,0.0
1039,0.006244942269226058
2,3, 1, 3, 0,19, 0.00,60.00,Tuesday
9,114685456.26379806
45,24055441.644392939
107,65077200.0
170,261146982.97032733
206,91833660.00000002
279,13345138.585245643
304,5563797.622192752
486,18686862.21183267
623,0.0
648,25642767.579587878
729,14215137.879857196
878,9322216.98862597
918,10666800.0
955,0.0
968,0.0
983,117488639.39162584
1008,150626460.75849469
1021,0.0
1039,0.008586395243566339
2,3, 1, 3, 0,20, 0.00,60.00,Tuesday
9,114687336.97979835
45,24055441.644392939
107,65077200.0
170,262641833.8113549
206,91833660.00000002
279,13355965.277673489
304,5565678.337411701
486,20765644.993806229
623,0.0
648,26117983.75967766
729,15507419.881584986
878,9322216.98862597
918,10666800.0
955,0.0
968,0.0
983,117033172.47768796
1008,150042528.81754867
1021,0.0
1039,0.00936776293805917
2,3, 1, 3, 0,21, 0.00,60.00,Tuesday
9,96683772.59339683
45,24055441.644392939
107,47077200.0
170,256027656.60142938
206,81029700.0
279,13335450.91970179
304,5562113.952574215
486,16608589.491592305
623,0.0
648,19631498.77295582
729,12922854.233931115
878,9322216.98862597
918,10666800.0
955,0.0
968,0.0
983,123543706.3456729
1008,158389367.10983707
1021,0.0
1039,0.007803715706056016
2,3, 1, 3, 0,22, 0.00,60.00,Tuesday
9,96566361.4595606
45,24055441.644392939
107,47077200.0
170,255469484.7575002
206,75627720.0
279,12831663.473928733
304,5444702.817955456
486,18689100.46734178
623,0.0
648,17487712.253845656
729,14215138.968013017
878,9322216.98862597
918,10666800.0
955,0.0
968,0.0
983,125699078.14632356
1008,161152664.2901584
1021,0.0
1039,0.00858625714158512
2,3, 1, 3, 0,23, 0.00,60.00,Tuesday
9,96562706.98632169
45,24055441.644392939
107,47077200.0
170,246358556.10859684
206,64823759.99999999
279,12810213.418973217
304,5441048.3462741519
486,14536027.529686565
623,0.0
648,12924863.682770446
729,11630560.323531976
878,9322216.98862597
918,10666800.0
955,0.0
968,0.0
983,130259039.49155002
1008,166998768.5789103
1021,0.0
1039,0.00702863729002255
2,3, 1, 3, 0,24, 0.00,60.00,Tuesday
9,100880288.8166658
45,24055441.644392939
107,47077200.0
170,197455566.26902957
206,10803960.0
279,16462430.086337157
304,9758630.179747029
486,10387224.540198796
623,2564985.5660011644
648,8234246.256521682
729,6461427.113412161
878,9322216.98862597
918,10666800.0
955,0.0
968,0.0
983,137486217.74848799
1008,176264381.72883076
1021,0.0
1039,0.003899875034723301
2,4, 1, 4, 0, 1, 0.00,60.00,Wednesday
9,57801707.69300558
45,12027720.822196469
107,20077200.0
170,247152191.82223977
206,10803960.0
279,15054250.57728415
304,5707769.879057189
486,6257286.599597231
623,36346315.81316748
648,0.0
729,5178167.980907925
878,9322216.98862597
918,10666800.0
955,0.0
968,0.0
983,179470937.2736612
1008,230090945.22264255
1021,0.0
1039,0.003125943395768793
2,4, 1, 4, 0, 2, 0.00,60.00,Wednesday
9,42526769.126306477
45,4009240.274065489
107,18000000.0
170,102825522.25445697
206,10803960.0
279,10430116.507261096
304,4523747.715883288
486,2131532.7611115558
623,5615988.717299119
648,0.0
729,0.0
878,5326981.136357697
918,10666800.0
955,0.0
968,0.0
983,70114223.00480943
1008,89890029.49334541
1021,0.0
1039,0.0
2,4, 1, 4, 0, 3, 0.00,60.00,Wednesday
9,44108665.80833483
45,4009240.274065489
107,18000000.0
170,136700570.12262754
206,10803960.0
279,9937476.411144533
304,4440962.79279986
486,72000.0
623,13426150.731591583
648,0.0
729,0.0
878,6991662.741469477
918,10666800.0
955,0.0
968,0.0
983,98143195.89564947
1008,125824610.12262753
1021,0.0
1039,0.0
2,4, 1, 4, 0, 4, 0.00,60.00,Wednesday
9,41771328.62511195
45,4009240.274065489
107,18000000.0
170,102605252.20126423
206,10803960.0
279,9897112.094196525
304,4434179.856733471