Program Version,EnergyPlus, Version 9.2.0-921312fa1d, YMD=2020.12.22 17:53
1,5,Environment Title[],Latitude[deg],Longitude[deg],Time Zone[],Elevation[m]
2,8,Day of Simulation[],Month[],Day of Month[],DST Indicator[1=yes 0=no],Hour[],StartMinute[],EndMinute[],DayType
3,5,Cumulative Day of Simulation[],Month[],Day of Month[],DST Indicator[1=yes 0=no],DayType  ! When Daily Meters Requested
4,2,Cumulative Days of Simulation[],Month[]  ! When Monthly Meters Requested
5,1,Cumulative Days of Simulation[] ! When Run Period Meters Requested
6,1,Calendar Year of Simulation[] ! When Annual Meters Requested
9,1,Electricity:Facility [J] !Hourly
1851,1,Heating:Electricity [J] !Hourly
1993,1,Cooling:Electricity [J] !Hourly
45,1,InteriorLights:Electricity [J] !Hourly
1955,1,ExteriorLights:Electricity [J] !Hourly
432,1,InteriorEquipment:Electricity [J] !Hourly
1928,1,Fans:Electricity [J] !Hourly
2022,1,Pumps:Electricity [J] !Hourly
714,1,Gas:Facility [J] !Hourly
1905,1,Heating:Gas [J] !Hourly
738,1,WaterSystems:Gas [J] !Hourly
899,1,Heating:EnergyTransfer [J] !Hourly
924,1,Cooling:EnergyTransfer [J] !Hourly
1669,1,WaterSystems:EnergyTransfer [J] !Hourly
1826,1,HeatingCoils:EnergyTransfer [J] !Hourly
1980,1,CoolingCoils:EnergyTransfer [J] !Hourly
End of Data Dictionary
1,RUNPERIOD 1,  41.98, -87.92,  -6.00, 201.00
2,1, 1, 1, 0, 1, 0.00,60.00,Holiday
9,310976028.4687763
45,9649497.642210719
432,57896985.85326433
714,13783360.40212962
738,72000.0
899,184985091.79387827
924,17677659.94438501
1669,656357.8931907268
1826,191859444.99686138
1851,180890356.67515768
1905,13711360.40212962
1928,9214403.959320134
1955,53294400.0
1980,0.0
1993,0.0
2022,30384.33882352941
2,1, 1, 1, 0, 2, 0.00,60.00,Holiday
9,304931380.8915
45,9649497.642210719
432,57896985.85326433
714,17744136.835122695
738,72000.0
899,184151913.6215748
924,15205817.512534265
1669,656357.8931907268
1826,190313361.33937688
1851,176175651.87127868
1905,17672136.835122695
1928,7884461.185922701
1955,53294400.0
1980,0.0
1993,0.0
2022,30384.33882352941
2,1, 1, 1, 0, 3, 0.00,60.00,Holiday
9,365042607.81438216
45,9649497.642210719
432,57896985.85326433
714,29004298.5338476
738,3970717.936534071
899,247148534.17577935
924,19048974.594550715
1669,656357.8931907268
1826,254342627.975531
1851,234315763.4976802
1905,25033580.59731353
1928,9855576.482403376
1955,53294400.0
1980,0.0
1993,0.0
2022,30384.33882352941
2,1, 1, 1, 0, 4, 0.00,60.00,Holiday
9,312206515.3624191
45,9649497.642210719
432,57896985.85326433
714,19894739.980352105
738,72000.0
899,193302053.98609443
924,14655682.092229929
1669,656357.8931907268
1826,199308978.32647956
1851,183450786.3421979
1905,19822739.980352105
1928,7884461.185922701
1955,53294400.0
1980,0.0
1993,0.0
2022,30384.33882352941
2,1, 1, 1, 0, 5, 0.00,60.00,Holiday
9,374498953.93348518
45,9649497.642210719
432,57896985.85326433
714,31483880.0820252
738,3970960.660684295
899,258821281.49126614
924,18398929.74211312
1669,656357.8931907269
1826,265782445.15385593
1851,243772109.61678318
1905,27512919.421340906
1928,9855576.482403376
1955,53294400.0
1980,0.0
1993,0.0
2022,30384.33882352941
2,1, 1, 1, 0, 6, 0.00,60.00,Holiday
9,318097643.1718639
45,9649497.642210719
432,57896985.85326433
714,21691567.50730469
738,72000.0
899,200667799.82155396
924,14184441.267120246
1669,1148626.3130837719
1826,206637568.1574864
1851,189341914.15164269
1905,21619567.50730469
1928,7884461.185922701
1955,53294400.0
1980,0.0
1993,0.0
2022,30384.33882352941
2,1, 1, 1, 0, 7, 0.00,60.00,Holiday
9,381566375.1459797
45,9649497.642210719
432,57896985.85326433
714,33228942.128443716
738,3970769.64418856
899,267305873.82064028
924,17791102.070246847
1669,656357.8931907269
1826,274246068.81668189
1851,250839530.82927776
1905,29258172.48425516
1928,9855576.482403376
1955,53294400.0
1980,0.0
1993,0.0
2022,30384.33882352941
2,1, 1, 1, 0, 8, 0.00,60.00,Holiday
9,281847987.27638158
45,9649497.642210719
432,57896985.85326433
714,22837827.62828525
738,72000.0
899,200726459.6267218
924,13783787.148504589
1669,656357.8931907268
1826,206834520.35878847
1851,188621858.25616024
1905,22765827.62828525
1928,7884461.185922701
1955,17764800.0
1980,0.0
1993,0.0
2022,30384.33882352941
2,1, 1, 1, 0, 9, 0.00,60.00,Holiday
9,269919870.68223479
45,9649497.642210719
432,57896985.85326433
714,32756519.93073026
738,3970793.2005716238
899,211008267.04418028
924,20653619.79334004
1669,656357.8931907268
1826,215516007.74965973
1851,192487426.3655328
1905,28785726.730158636
1928,9855576.482403376
1955,0.0
1980,0.0
1993,0.0
2022,30384.33882352941
2,1, 1, 1, 0,10, 0.00,60.00,Holiday
9,192125272.05920808
45,9649497.642210719
432,57896985.85326433
714,20297649.28805747
738,72000.0
899,132689335.74191588
924,21819142.642494129
1669,656357.8931907268
1826,132844462.46943277
1851,116663943.0389868
1905,20225649.28805747
1928,7884461.185922701
1955,0.0
1980,0.0
1993,0.0
2022,30384.33882352941
2,1, 1, 1, 0,11, 0.00,60.00,Holiday
9,217528142.43934567
45,9649497.642210719
432,57896985.85326433
714,22569293.19469935
738,72000.0
899,160628517.687686
924,32187033.13988926
1669,656357.8931907268
1826,158093532.67840318
1851,140095698.12264369
1905,22497293.19469935
1928,9855576.482403376
1955,0.0
1980,0.0
1993,0.0
2022,30384.33882352941
2,1, 1, 1, 0,12, 0.00,60.00,Holiday
9,173663464.7552302
45,9649497.642210719
432,57896985.85326433
714,18002496.08522416
738,3970613.56790718
899,110913024.1035338
924,26881733.067971626
1669,984536.83978609
1826,109427641.7488625
1851,98202135.73500893
1905,14031882.517316977
1928,7884461.185922701
1955,0.0
1980,0.0
1993,0.0
2022,30384.33882352941
2,1, 1, 1, 0,13, 0.00,60.00,Holiday
9,192831387.808804
45,9649497.642210719
432,57896985.85326433
714,18475325.64298316
738,3970678.8333690359
899,127760997.84916063
924,22351836.155305368
1669,984536.83978609
1826,128237408.25872886
1851,116633690.81103757
1905,14504646.809614128
1928,8620829.163467842
1955,0.0
1980,0.0
1993,0.0
2022,30384.33882352941
2,1, 1, 1, 0,14, 0.00,60.00,Holiday
9,157397056.88966505
45,9649497.642210719
432,57896985.85326433
714,8487461.38288526
738,72000.0
899,89600236.07961834
924,6069343.408502057
1669,1476805.2596791352
1826,91137591.61362306
1851,84405222.50731485
1905,8415461.38288526
1928,5414966.548051632
1955,0.0
1980,0.0
1993,0.0
2022,30384.33882352941
2,1, 1, 1, 0,15, 0.00,60.00,Holiday
9,182510244.8758446
45,9649497.642210719
432,57896985.85326433
714,12778276.46607467
738,3970874.253024494
899,112281655.45695971
924,6711548.867490043
1669,984536.83978609
1826,115210590.62692166
1851,108164668.85648152
1905,8807402.213050178
1928,6768708.18506454
1955,0.0
1980,0.0
1993,0.0
2022,30384.33882352941
2,1, 1, 1, 0,16, 0.00,60.00,Holiday
9,167810242.70419286
45,9649497.642210719
432,57896985.85326433
714,5553834.613202835
738,72000.0
899,93539634.2163387
924,13754920.826950979
1669,656357.8931907268
1826,97722179.22968228
1851,93336711.53912002
1905,5481834.613202835
1928,6896663.330774274
1955,0.0
1980,0.0
1993,0.0
2022,30384.33882352941
2,1, 1, 1, 0,17, 0.00,60.00,Holiday
9,238989051.4982285
45,9649497.642210719
432,57896985.85326433
714,11028846.56191099
738,3970858.28569521
899,127332237.52850539
924,17017148.80043032
1669,656357.8931907268
1826,132908145.12143469
1851,127261754.50046206
1905,7057988.27621578
1928,8620829.163467842
1955,35529600.0
1980,0.0
1993,0.0
2022,30384.33882352941
2,1, 1, 1, 0,18, 0.00,60.00,Holiday
9,237331654.90069474
45,9649497.642210719
432,57896985.85326433
714,4812343.707995795
738,72000.0
899,106054573.11949791
924,17697182.196884287
1669,656357.8931907268
1826,112368200.8468701
1851,108575925.88047347
1905,4740343.707995795
1928,7884461.185922701
1955,53294400.0
1980,0.0
1993,0.0
2022,30384.33882352941
2,1, 1, 1, 0,19, 0.00,60.00,Holiday
9,277594518.9281462
45,9649497.642210719
432,57896985.85326433
714,11886344.909701698
738,3970909.1971011466
899,143822870.11254979
924,20898762.511637175
1669,656357.8931907268
1826,153200023.18152467
1851,146867674.61144424
1905,7915435.712600552
1928,9855576.482403376
1955,53294400.0
1980,0.0
1993,0.0
2022,30384.33882352941
2,1, 1, 1, 0,20, 0.00,60.00,Holiday
9,246662067.05388306
45,9649497.642210719
432,57896985.85326433
714,5984608.487782404
738,72000.0
899,115152035.6826812
924,16248363.233651504
1669,656357.8931907269
1826,122636424.82388774
1851,117906338.03366181
1905,5912608.487782404
1928,7884461.185922701
1955,53294400.0
1980,0.0
1993,0.0
2022,30384.33882352941
2,1, 1, 1, 0,21, 0.00,60.00,Holiday
9,281524482.31462576
45,9649497.642210719
432,57896985.85326433
714,8744876.909524978
738,72000.0
899,148416356.41123794
924,20524864.518043464
1669,656357.8931907268
1826,157735939.5255438
1851,150797637.99792386
1905,8672876.909524978
1928,9855576.482403376
1955,53294400.0
1980,0.0
1993,0.0
2022,30384.33882352941
2,1, 1, 1, 0,22, 0.00,60.00,Holiday
9,248564245.47331909
45,9649497.642210719
432,57896985.85326433
714,10570817.143733576
738,3971345.1497694638
899,117719924.53574406
924,16088992.09173798
1669,1148626.3130837719
1826,125088094.0482691
1851,119808516.45309782
1905,6599471.993964113
1928,7884461.185922701
1955,53294400.0
1980,0.0
1993,0.0
2022,30384.33882352941
2,1, 1, 1, 0,23, 0.00,60.00,Holiday
9,288305369.1200385
45,9649497.642210719
432,57896985.85326433
714,13568941.326119494
738,3970772.2017643849
899,155982491.0019068
924,20314974.37228769
1669,656357.8931907268
1826,165257060.10282067
1851,157578524.8033366
1905,9598169.124355108
1928,9855576.482403376
1955,53294400.0
1980,0.0
1993,0.0
2022,30384.33882352941
2,1, 1, 1, 0,24, 0.00,60.00,Holiday
9,256453822.59934677
45,9649497.642210719
432,57896985.85326433
714,7476872.818424404
738,72000.0
899,126291596.6708741
924,15867315.470987767
1669,656357.8931907269
1826,133621991.83386499
1851,127698093.57912544
1905,7404872.818424404
1928,7884461.1859227
1955,53294400.0
1980,0.0
1993,0.0
2022,30384.33882352941
2,2, 1, 2, 0, 1, 0.00,60.00,Monday
9,312203993.62962409
45,9649497.642210719
432,77195981.13768575
714,11637093.371587769
738,72000.0
899,164563259.1925041
924,22294699.159783096
1669,822188.3656156191
1826,171430228.72577087
1851,162178154.02850066
1905,11565093.371587769
1928,9855576.482403376
1955,53294400.0
1980,0.0
1993,0.0
2022,30384.33882352941
2,2, 1, 2, 0, 2, 0.00,60.00,Monday
9,278701390.8760124
45,9649497.642210719
432,77195981.13768575
714,13434833.702111524
738,3971177.0045821138
899,132992084.72633338
924,17743040.679360667
1669,822188.3656156191
1826,138217591.92939318
1851,130646666.57136965
1905,9463656.69752941
1928,7884461.185922701
1955,53294400.0
1980,0.0
1993,0.0
2022,30384.33882352941
2,2, 1, 2, 0, 3, 0.00,60.00,Monday
9,317135112.02847126
45,9649497.642210719
432,77195981.13768575
714,13104404.092723975
738,72000.0
899,171058719.2401898
924,22513640.011253746
1669,822188.3656156191
1826,177535195.70152698
1851,167109272.42734779
1905,13032404.092723975
1928,9855576.482403376
1955,53294400.0
1980,0.0
1993,0.0
2022,30384.33882352941
2,2, 1, 2, 0, 4, 0.00,60.00,Monday
9,280026583.98187085
45,9649497.642210719
432,77195981.13768575
714,13987861.84243166
738,3970959.519199203
899,134914236.94532103
924,17674028.08957851
1669,822188.3656156191
1826,139985381.53581409
1851,131971859.67722813
1905,10016902.323232459
1928,7884461.185922701
1955,53294400.0
1980,0.0
1993,0.0
2022,30384.33882352941
2,2, 1, 2, 0, 5, 0.00,60.00,Monday
9,312650564.66958418
45,9649497.642210719
432,77195981.13768575
714,13071219.913207362
738,72000.0
899,166375400.06359197
924,22436425.739128446
1669,822188.3656156192
1826,173024100.9990267
1851,162624725.0684608
1905,12999219.913207362
1928,9855576.482403376
1955,53294400.0
1980,0.0
1993,0.0
2022,30384.33882352941
2,2, 1, 2, 0, 6, 0.00,60.00,Monday
9,280908421.86503937
45,19298995.284421438
432,77195981.13768575
714,12575479.003381186
738,3971489.1915604879
899,127520892.97641891
924,17551757.295204607
1669,1315501.384984991
1826,130087391.76764247
1851,123204199.91818592
1905,8603989.811820697
1928,7884461.185922701
1955,53294400.0
1980,0.0
1993,0.0
2022,30384.33882352941
2,2, 1, 2, 0, 7, 0.00,60.00,Monday
9,1052584189.3161043
45,19298995.284421438
432,77195981.13768575
714,6109865.074671261
738,3971055.4386105958
899,809068549.5446743
924,0.0
1669,1151063.7118618668
1826,892648784.4851379
1851,890937736.7762895
1905,2138809.636060665
1928,11826691.77888405
1955,53294400.0
1980,0.0
1993,0.0
2022,30384.33882352941
2,2, 1, 2, 0, 8, 0.00,60.00,Monday
9,900394745.8182457
45,57896985.85326433
432,117654442.67614728
714,166684598.33640687
738,3973399.3873512896
899,603894233.0209539
924,0.0
1669,3124315.789339353
1826,825390400.3303708
1851,695221441.1711264
1905,162711198.94905556
1928,11826691.77888405
1955,17764800.0
1980,0.0
1993,0.0
2022,30384.338823529408
2,2, 1, 2, 0, 9, 0.00,60.00,Monday
9,903930518.1803229
45,173690957.55979295
432,253451924.59275989
714,149778366.1480512
738,7880877.673729852
899,430242772.9828549
924,36590119.39106453
1669,5755318.559309334
1826,578448550.6895194
1851,464930559.9100623
1905,141897488.47432138
1928,11826691.77888405
1955,0.0
1980,0.0
1993,0.0
2022,30384.33882352941
2,2, 1, 2, 0,10, 0.00,60.00,Monday
9,801772848.5142413
45,173690957.55979295
432,223397067.4499028
714,131864344.14384049
738,7882545.049897168
899,346936070.9466964
924,35831205.81964236
1669,6248631.578678706
1826,492013186.6619927
1851,392827747.386838
1905,123981799.09394333
1928,11826691.77888405
1955,0.0
1980,0.0
1993,0.0
2022,30384.338823529408
2,2, 1, 2, 0,11, 0.00,60.00,Monday
9,746914936.3819203
45,173690957.55979295
432,216461331.18616648
714,111213502.04882472
738,7882459.408726506
899,290506528.49000266
924,35647563.65389666
1669,6413069.25180183
1826,427570405.6303318
1851,344905571.5182532
1905,103331042.6400982
1928,11826691.77888405
1955,0.0
1980,0.0
1993,0.0
2022,30384.338823529408
2,2, 1, 2, 0,12, 0.00,60.00,Monday
9,710259622.7173662
45,173690957.55979295
432,223397067.4499028
714,102492218.79957049
738,11793146.221607915
899,240239460.6101173
924,37062299.441818248
1669,7728570.6367868189
1826,373873779.65233299
1851,301314521.58996286
1905,90699072.57796259
1928,11826691.77888405
1955,0.0
1980,0.0
1993,0.0
2022,30384.338823529408
2,2, 1, 2, 0,13, 0.00,60.00,Monday
9,704541514.6678448
45,173690957.55979295
432,221437412.82482205
714,98374634.08026046
738,11798450.45892859
899,230695309.846246
924,38559779.316177938
1669,9372947.368018058
1826,366817015.06258758
1851,297556068.16552206
1905,86576183.62133187
1928,11826691.77888405
1955,0.0
1980,0.0
1993,0.0
2022,30384.338823529408
2,2, 1, 2, 0,14, 0.00,60.00,Monday
9,659830127.981597
45,173690957.55979295
432,229176847.66968299
714,112532492.88231732
738,11798142.201872429
899,174526579.76286618
924,41465543.159242037
1669,8879634.348648688
1826,325692727.1787693
1851,245105246.63441337
1905,100734350.68044488
1928,11826691.77888405
1955,0.0
1980,0.0
1993,0.0
2022,30384.338823529408
2,2, 1, 2, 0,15, 0.00,60.00,Monday
9,634903737.5728459
45,173690957.55979295
432,216461331.18616648
714,125410142.83236622
738,8865342.940639629
899,161316511.28042913
924,45718143.5766362
1669,5590880.88618621
1826,326130212.62256
1851,232894372.70917879
1905,116544799.89172659
1928,11826691.77888405
1955,0.0
1980,0.0
1993,0.0
2022,30384.338823529408
2,2, 1, 2, 0,16, 0.00,60.00,Monday
9,626208800.010896
45,173690957.55979295
432,216461331.18616648
714,112541971.78193866
738,6896287.925090666
899,155503127.79431058
924,53742408.157680828
1669,5426443.213063086
1826,308715982.2327072
1851,224199435.1472288
1905,105645683.85684799
1928,11826691.77888405
1955,0.0
1980,0.0
1993,0.0
2022,30384.338823529408
2,2, 1, 2, 0,17, 0.00,60.00,Monday
9,668372343.8945258
45,173690957.55979295
432,226864935.58177094
714,106041089.56052454
738,11790879.456817843
899,156472521.67199777
924,62933530.10472666
1669,7235257.617417449
1826,295829942.71821966
1851,220429774.63525427
1905,94250210.10370669
1928,11826691.77888405
1955,35529600.0
1980,0.0
1993,0.0
2022,30384.338823529408
2,2, 1, 2, 0,18, 0.00,60.00,Monday
9,669002403.3958348
45,135092966.9909501
432,226061237.00064618
714,115331281.72086543
738,7877544.717097238
899,159571946.675194
924,56972182.03395123
1669,4275379.501201221
1826,328659712.88954517
1851,242696723.28653056
1905,107453737.0037682
1928,11826691.77888405
1955,53294400.0
1980,0.0
1993,0.0
2022,30384.338823529408
2,2, 1, 2, 0,19, 0.00,60.00,Monday
9,570948544.3398798
45,96494976.4221072
432,129665444.23400118
714,111268477.18037394
738,3973818.3800317116
899,165960398.99228657
924,34698764.83358453
1669,3453191.1355856016
1826,365472374.6063375
1851,279636647.5660637
1905,107294658.80034223
1928,11826691.77888405
1955,53294400.0
1980,0.0
1993,0.0
2022,30384.33882352941
2,2, 1, 2, 0,20, 0.00,60.00,Monday
9,569232062.8389069
45,96494976.4221072
432,120417795.88235286
714,98035610.17035645
738,3972574.2973796648
899,164164241.11893935
924,24980704.41462138
1669,2466565.0968468578
1826,362418243.11512067
1851,287167814.4167392
1905,94063035.87297678
1928,11826691.77888405
1955,53294400.0
1980,0.0
1993,0.0
2022,30384.338823529408
2,2, 1, 2, 0,21, 0.00,60.00,Monday
9,544416534.7819731
45,57896985.85326433
432,101118800.5979314
714,90377280.37894398
738,3973092.360658185
899,175340785.98935283
924,13572662.223611605
1669,2795440.443093105
1826,389372622.6276985
1851,320249272.2130698
1905,86404188.0182858
1928,11826691.77888405
1955,53294400.0
1980,0.0
1993,0.0
2022,30384.338823529408
2,2, 1, 2, 0,22, 0.00,60.00,Monday
9,541146439.7142954
45,57896985.85326433
432,96494976.4221072
714,81313070.34072264
738,3971344.654048502
899,172896858.8499009
924,9763726.411318718
1669,1315501.3849849906
1826,383476381.8705555
1851,321603001.3212162
1905,77341725.68667414
1928,11826691.77888405
1955,53294400.0
1980,0.0
1993,0.0
2022,30384.338823529408
2,2, 1, 2, 0,23, 0.00,60.00,Monday
9,149819760.76093073
45,19298995.284421438
432,77195981.13768575
714,72000.0
738,72000.0
899,6432998.42814048
924,0.0
1669,822188.3656156191
1826,0.0
1851,0.0
1905,0.0
1928,0.0
1955,53294400.0
1980,0.0
1993,0.0
2022,30384.33882352941
2,2, 1, 2, 0,24, 0.00,60.00,Monday
9,140170263.11872
45,9649497.642210719
432,77195981.13768575
714,3970949.601396944
738,3970949.601396944
899,4503098.899698336
924,0.0
1669,822188.3656156191
1826,0.0
1851,0.0
1905,0.0
1928,0.0
1955,53294400.0
1980,0.0
1993,0.0
2022,30384.338823529408
2,3, 1, 3, 0, 1, 0.00,60.00,Tuesday
9,140170263.11872
45,9649497.642210719
432,77195981.13768575
714,72000.0
738,72000.0
899,3859799.056884288
924,0.0
1669,823896.3607520128
1826,0.0
1851,0.0
1905,0.0
1928,0.0
1955,53294400.0
1980,0.0
1993,0.0
2022,30384.338823529408
2,3, 1, 3, 0, 2, 0.00,60.00,Tuesday
9,140170263.11872
45,9649497.642210719
432,77195981.13768575
714,3970988.9483035726
738,3970988.9483035726
899,3859799.056884288
924,0.0
1669,823896.3607520127
1826,0.0
1851,0.0
1905,0.0
1928,0.0
1955,53294400.0
1980,0.0
1993,0.0
2022,30384.338823529408
2,3, 1, 3, 0, 3, 0.00,60.00,Tuesday
9,140170263.11872
45,9649497.642210719
432,77195981.13768575
714,72000.0
738,72000.0
899,3859799.056884288
924,0.0
1669,823896.3607520127
1826,0.0
1851,0.0
1905,0.0
1928,0.0
1955,53294400.0
1980,0.0
1993,0.0
2022,30384.338823529408
2,3, 1, 3, 0, 4, 0.00,60.00,Tuesday
9,145496104.5436837
45,9649497.642210719
432,77195981.13768575
714,4142919.7981708825
738,3970519.5517816424
899,11805901.249879536
924,3112830.670387728
1669,823896.3607520128
1826,4781222.244427739
1851,4643302.047316346
1905,172400.24638924024
1928,682539.3776473665
1955,53294400.0
1980,0.0
1993,0.0
2022,30384.338823529408
2,3, 1, 3, 0, 5, 0.00,60.00,Tuesday
9,166314346.8303062
45,9649497.642210719
432,77195981.13768575
714,72000.0
738,72000.0
899,38709676.47404143
924,14517081.966748799
1669,823896.3607520127
1826,22731386.82334938
1851,22731386.82334938
1905,0.0
1928,3412696.8882368325
1955,53294400.0
1980,0.0
1993,0.0
2022,30384.338823529408
2,3, 1, 3, 0, 6, 0.00,60.00,Tuesday
9,174698476.34061445
45,19298995.284421438
432,77195981.13768575
714,4022658.3313443365
738,3971352.389277224
899,39764977.06037533
924,10998749.538243689
1669,1318234.1772032206
1826,22189602.82274793
1851,22148558.06909424
1905,51305.942067112526
1928,2730157.510589466
1955,53294400.0
1980,0.0
1993,0.0
2022,30384.338823529408
2,3, 1, 3, 0, 7, 0.00,60.00,Tuesday
9,733169586.7123321
45,19298995.284421438
432,77195981.13768575
714,72000.0
738,72000.0
899,435673741.84454938
924,0.0
1669,1153454.9050528182
1826,571523134.1725174
1851,571523134.1725174
1905,0.0
1928,11826691.77888405
1955,53294400.0
1980,0.0
1993,0.0
2022,30384.33882352941
2,3, 1, 3, 0, 8, 0.00,60.00,Tuesday
9,631305795.4648389
45,57896985.85326433
432,117654442.67614728
714,192296496.16092838
738,7873735.775058271
899,314010164.47434726
924,25457910.542078429
1669,3130806.1708576495
1826,573670699.1264156
1851,426132490.8177195
1905,184422760.3858701
1928,11826691.77888405
1955,17764800.0
1980,0.0
1993,0.0
2022,30384.338823529408
2,3, 1, 3, 0, 9, 0.00,60.00,Tuesday
9,710962874.4203456
45,173690957.55979295
432,253451924.59275989
714,191292007.29105828
738,7881410.388277374
899,218982297.3199544
924,61956529.86464132
1669,5767274.52526409
1826,418691393.67230966
1851,271962916.1500849
1905,183410596.9027809
1928,11826691.77888405
1955,0.0
1980,0.0
1993,0.0
2022,30384.33882352941
2,3, 1, 3, 0,10, 0.00,60.00,Tuesday
9,638555089.882151
45,173690957.55979295
432,223397067.4499028
714,194404468.3549536
738,7881928.818404017
899,178208096.98844905
924,69967543.8660003
1669,6261612.341715299
1826,378828020.38398727
1851,229609988.75474758
1905,186522539.53654958
1928,11826691.77888405
1955,0.0
1980,0.0
1993,0.0
2022,30384.338823529408
2,3, 1, 3, 0,11, 0.00,60.00,Tuesday
9,603650742.0291419
45,173690957.55979295
432,216461331.18616648
714,186709100.9920408
738,7882553.223272365
899,152127809.45451016
924,76350422.8917185
1669,6426391.6138657019
1826,344702615.3804896
1851,201641377.16547478
1905,178826547.7687685
1928,11826691.77888405
1955,0.0
1980,0.0
1993,0.0
2022,30384.338823529408
2,3, 1, 3, 0,12, 0.00,60.00,Tuesday
9,590984728.2954767
45,173690957.55979295
432,223397067.4499028
714,178201789.93707193
738,11792068.682501128
899,134342153.52856989
924,82876813.62021533
1669,7744625.791068921
1826,315167404.17173
1851,182039627.16807337
1905,166409721.25457079
1928,11826691.77888405
1955,0.0
1980,0.0
1993,0.0
2022,30384.338823529408
2,3, 1, 3, 0,13, 0.00,60.00,Tuesday
9,603650512.8039086
45,173690957.55979295
432,221437412.82482205
714,166076276.8968042
738,11797239.70655637
899,135313862.9775375
924,73496445.66709252
1669,9392418.512572946
1826,320088296.05378416
1851,196665066.30158586
1905,154279037.19024784
1928,11826691.77888405
1955,0.0
1980,0.0
1993,0.0
2022,30384.338823529408
2,3, 1, 3, 0,14, 0.00,60.00,Tuesday
9,568994089.8291704
45,173690957.55979295
432,229176847.66968299
714,160061731.15416575
738,11797036.893114528
899,110226244.85408233
924,94737790.05448899
1669,8898080.69612174
1826,272880963.8908277
1851,154269208.4819867
1905,148264694.26105125
1928,11826691.77888405
1955,0.0
1980,0.0
1993,0.0
2022,30384.338823529408
2,3, 1, 3, 0,15, 0.00,60.00,Tuesday
9,548929932.9601688
45,173690957.55979295
432,216461331.18616648
714,154232941.8537301
738,7881117.045341845
899,103291678.38282335
924,97993263.75843853
1669,5602495.253113689
1826,264002027.9432123
1851,146920568.09650169
1905,146351824.80838827
1928,11826691.77888405
1955,0.0
1980,0.0
1993,0.0
2022,30384.338823529408
2,3, 1, 3, 0,16, 0.00,60.00,Tuesday
9,547098249.7786478
45,173690957.55979295
432,216461331.18616648
714,152736405.9612428
738,7880407.19327065
899,100861027.05925665
924,100264109.60149513
1669,5437715.980963286
1826,260973683.9293584
1851,145088884.91498066
1905,144855998.76797215
1928,11826691.77888405
1955,0.0
1980,0.0
1993,0.0
2022,30384.338823529408
2,3, 1, 3, 0,17, 0.00,60.00,Tuesday
9,599962446.2783308
45,173690957.55979295
432,226864935.58177094
714,155315908.46705804
738,11790915.471753566
899,107600614.27412604
924,102718716.16870559
1669,7250287.974617712
1826,266839871.41530288
1851,152019877.01905925
1905,143524992.99530448
1928,11826691.77888405
1955,35529600.0
1980,0.0
1993,0.0
2022,30384.338823529408
2,3, 1, 3, 0,18, 0.00,60.00,Tuesday
9,603628848.3720093
45,135092966.9909501
432,226061237.00064618
714,148994296.3369789
738,3974852.7296995476
899,114618251.23312949
924,95907523.69683074
1669,4284261.075910467
1826,293338666.58099928
1851,177323111.6951758
1905,145019443.60727937
1928,11826748.346413229
1955,53294400.0
1980,0.0
1993,0.0
2022,30384.338823529408
2,3, 1, 3, 0,19, 0.00,60.00,Tuesday
9,510804654.905213
45,96494976.4221072
432,129665444.23400118
714,157340196.97069303
738,7876592.263610121
899,124163353.55874509
924,69436910.43650876
1669,3460364.715158454
1826,339063641.89706328
1851,219492758.13139699
1905,149463604.7070829
1928,11826691.77888405
1955,53294400.0
1980,0.0
1993,0.0
2022,30384.33882352941
2,3, 1, 3, 0,20, 0.00,60.00,Tuesday
9,508829879.74423679
45,96494976.4221072
432,120417795.88235286
714,155854531.31690238
738,3972753.7840930905
899,129225613.22912586
924,64161480.790337119
1669,2471689.0822560389
1826,348271053.3483165
1851,226765631.32206903
1905,151881777.53280927
1928,11826691.77888405
1955,53294400.0
1980,0.0
1993,0.0
2022,30384.338823529408
2,3, 1, 3, 0,21, 0.00,60.00,Tuesday
9,492855283.29755237
45,57896985.85326433
432,101118800.5979314
714,159540551.6699059
738,3973067.255106212
899,138268651.7367034
924,39720320.14143564
1669,2801247.6265568446
1826,393142008.26048877
1851,268688020.728649
1905,155567484.4147997
1928,11826691.77888405
1955,53294400.0
1980,0.0
1993,0.0
2022,30384.338823529408
2,3, 1, 3, 0,22, 0.00,60.00,Tuesday
9,500771001.3816919
45,57896985.85326433
432,96494976.4221072
714,161176274.38861818
738,3971444.2980082205
899,145600939.0329498
924,32759697.62570135
1669,1318234.1772032208
1826,406991427.06110069
1851,281227562.9886127
1905,157204830.09060995
1928,11826691.77888405
1955,53294400.0
1980,0.0
1993,0.0
2022,30384.338823529408
2,3, 1, 3, 0,23, 0.00,60.00,Tuesday
9,149819760.76093073
45,19298995.284421438
432,77195981.13768575
714,72000.0
738,72000.0
899,6432998.42814048
924,0.0
1669,823896.3607520128
1826,0.0
1851,0.0
1905,0.0
1928,0.0
1955,53294400.0
1980,0.0
1993,0.0
2022,30384.33882352941
2,3, 1, 3, 0,24, 0.00,60.00,Tuesday
9,140170263.11872
45,9649497.642210719
432,77195981.13768575
714,3970756.1133739787
738,3970756.1133739787
899,4503098.899698336
924,0.0
1669,823896.3607520127
1826,0.0
1851,0.0
1905,0.0
1928,0.0
1955,53294400.0
1980,0.0
1993,0.0
2022,30384.338823529408
2,4, 1, 4, 0, 1, 0.00,60.00,Wednesday
9,140170263.11872
45,9649497.642210719
432,77195981.13768575
714,72000.0
738,72000.0
899,3859799.056884288
924,0.0
1669,825570.8460910071
1826,0.0
1851,0.0
1905,0.0
1928,0.0
1955,53294400.0
1980,0.0
1993,0.0
2022,30384.338823529408
2,4, 1, 4, 0, 2, 0.00,60.00,Wednesday
9,140170263.11872
45,9649497.642210719
432,77195981.13768575
714,3970833.8600193557
738,3970833.8600193557
899,3859799.056884288
924,0.0
1669,825570.846091007
1826,0.0
1851,0.0
1905,0.0
1928,0.0
1955,53294400.0
1980,0.0
1993,0.0
2022,30384.338823529408
2,4, 1, 4, 0, 3, 0.00,60.00,Wednesday
9,140170263.11872
45,9649497.642210719
432,77195981.13768575
714,72000.0
738,72000.0
899,3859799.056884288
924,0.0
1669,825570.846091007
1826,0.0
1851,0.0
1905,0.0
1928,0.0
1955,53294400.0
1980,0.0
1993,0.0
2022,30384.338823529408
2,4, 1, 4, 0, 4, 0.00,60.00,Wednesday
9,166222788.32474468
45,9649497.642210719
432,77195981.13768575
714,4856485.715732302
738,3971202.405641149
899,44109429.5915087
924,16358496.38368237
1669,825570.8460910071
1826,23348054.965860744
1851,22639828.31778782
1905,885283.310091153
1928,3412696.8882368325
1955,53294400.0
1980,0.0
1993,0.0
2022,30384.33882352941
2,4, 1, 4, 0, 5, 0.00,60.00,Wednesday
9,162784171.74911914
45,9649497.642210719
432,77195981.13768575
714,372410.7129396767
738,72000.0
899,36537225.55294494
924,12440332.543287117
1669,825570.8460910071
1826,20124079.69016141
1851,19883751.119809674
1905,300410.7129396767
1928,2730157.510589466
1955,53294400.0
1980,0.0
1993,0.0
2022,30384.33882352941
2,4, 1, 4, 0, 6, 0.00,60.00,Wednesday
9,181169948.5668738
45,19298995.284421438
432,77195981.13768575
714,4721645.7783721699
738,3971713.743051513
899,51896157.16556153
924,14957375.457126202
1669,1320913.3537456117
1826,28537436.545962737
1851,27937490.917706215
1905,749932.035320656
1928,3412696.8882368325
1955,53294400.0
1980,0.0
1993,0.0
2022,30384.338823529408
2,4, 1, 4, 0, 7, 0.00,60.00,Wednesday
9,684903607.3022716
45,19298995.284421438
432,77195981.13768575
714,72000.0
738,72000.0
899,387801075.6268012
924,6395464.1144450879
1669,1155799.18452741
1826,523257154.7624567
1851,523257154.7624567
1905,0.0
1928,11826691.77888405
1955,53294400.0
1980,0.0
1993,0.0
2022,30384.33882352941
2,4, 1, 4, 0, 8, 0.00,60.00,Wednesday
9,593108122.1879274
45,57896985.85326433
432,117654442.67614728
714,180255917.50531543
738,7875204.761193076
899,279871705.9811244
924,35929462.96321955
1669,3137169.2151458275
1826,525839387.73610606
1851,387934817.54080817
1905,172380712.74412234
1928,11826691.77888405
1955,17764800.0
1980,0.0
1993,0.0
2022,30384.338823529408
2,4, 1, 4, 0, 9, 0.00,60.00,Wednesday
9,680769554.1534089
45,173690957.55979295
432,253451924.59275989
714,160967282.25968976
738,7881049.307947688
899,193824880.55456049
924,74530240.75377836
1669,5778995.922637051
1826,364238582.244542
1851,241769595.88314838
1905,153086232.95174206
1928,11826691.77888405
1955,0.0
1980,0.0
1993,0.0
2022,30384.33882352941
2,4, 1, 4, 0,10, 0.00,60.00,Wednesday
9,611110356.5229608
45,173690957.55979295
432,223397067.4499028
714,145739673.30064447
738,7882174.899426127
899,156580450.25437246
924,83857488.79835336
1669,6274338.430291655
1826,312451254.11653199
1851,202165255.39555738
1905,137857498.40121833
1928,11826691.77888405
1955,0.0
1980,0.0
1993,0.0
2022,30384.338823529408
2,4, 1, 4, 0,11, 0.00,60.00,Wednesday
9,577728742.5528059
45,173690957.55979295
432,216461331.18616648
714,139385689.55547259
738,7882857.891473951
899,130274929.3047034
924,88781277.3216805
1669,6439452.599509857
1826,280921643.0203376