Program Version,EnergyPlus, Version 9.2.0-921312fa1d, YMD=2020.12.22 18:29
1,5,Environment Title[],Latitude[deg],Longitude[deg],Time Zone[],Elevation[m]
2,8,Day of Simulation[],Month[],Day of Month[],DST Indicator[1=yes 0=no],Hour[],StartMinute[],EndMinute[],DayType
3,5,Cumulative Day of Simulation[],Month[],Day of Month[],DST Indicator[1=yes 0=no],DayType  ! When Daily Meters Requested
4,2,Cumulative Days of Simulation[],Month[]  ! When Monthly Meters Requested
5,1,Cumulative Days of Simulation[] ! When Run Period Meters Requested
6,1,Calendar Year of Simulation[] ! When Annual Meters Requested
9,1,Electricity:Facility [J] !Hourly
1061,1,Heating:Electricity [J] !Hourly
1008,1,Cooling:Electricity [J] !Hourly
45,1,InteriorLights:Electricity [J] !Hourly
958,1,ExteriorLights:Electricity [J] !Hourly
107,1,InteriorEquipment:Electricity [J] !Hourly
918,1,Fans:Electricity [J] !Hourly
1079,1,Pumps:Electricity [J] !Hourly
304,1,Refrigeration:Electricity [J] !Hourly
170,1,Gas:Facility [J] !Hourly
1048,1,Heating:Gas [J] !Hourly
206,1,InteriorEquipment:Gas [J] !Hourly
486,1,WaterSystems:Gas [J] !Hourly
623,1,Heating:EnergyTransfer [J] !Hourly
648,1,Cooling:EnergyTransfer [J] !Hourly
769,1,WaterSystems:EnergyTransfer [J] !Hourly
279,1,Refrigeration:EnergyTransfer [J] !Hourly
1023,1,HeatingCoils:EnergyTransfer [J] !Hourly
995,1,CoolingCoils:EnergyTransfer [J] !Hourly
End of Data Dictionary
1,RUNPERIOD 1,  41.98, -87.92,  -6.00, 201.00
2,1, 1, 1, 0, 1, 0.00,60.00,Holiday
9,88333040.03364569
45,20186052.19281932
107,29481120.0
170,480390315.96277406
206,12023568.0
279,12907283.633402143
304,5146200.346201968
486,27716899.136108485
623,21868340.415140965
648,3810004.279908251
769,21409546.57705568
918,15222087.243232048
958,18291600.0
995,49300.026772786325
1008,5980.238427382124
1023,343716000.83632978
1048,440649848.8266656
1061,0.0
1079,0.012964977390075232
2,1, 1, 1, 0, 2, 0.00,60.00,Holiday
9,56769889.59968535
45,6728684.064273106
107,26964720.0
170,12095568.0
206,12023568.0
279,11982825.200980887
304,4784885.535412246
486,72000.0
623,0.0
648,0.0
769,0.0
918,0.0
958,18291600.0
995,0.0
1008,0.0
1023,0.0
1048,0.0
1061,0.0
1079,0.0
2,1, 1, 1, 0, 3, 0.00,60.00,Holiday
9,56703940.303199019
45,6728684.064273106
107,26964720.0
170,14207804.272488349
206,12023568.0
279,11586959.386501397
304,4718936.2389259119
486,2184236.272488349
623,0.0
648,0.0
769,0.0
918,0.0
958,18291600.0
995,0.0
1008,0.0
1023,0.0
1048,0.0
1061,0.0
1079,0.0
2,1, 1, 1, 0, 4, 0.00,60.00,Holiday
9,56660721.25649001
45,6728684.064273106
107,26964720.0
170,12095568.0
206,12023568.0
279,11329205.77487891
304,4675717.192216903
486,72000.0
623,0.0
648,0.0
769,0.0
918,0.0
958,18291600.0
995,0.0
1008,0.0
1023,0.0
1048,0.0
1061,0.0
1079,0.0
2,1, 1, 1, 0, 5, 0.00,60.00,Holiday
9,57141341.95801944
45,6728684.064273106
107,26964720.0
170,14207826.118660694
206,12023568.0
279,13324327.304551037
304,5156337.893746348
486,2184258.118660694
623,0.0
648,0.0
769,0.0
918,0.0
958,18291600.0
995,0.0
1008,0.0
1023,0.0
1048,0.0
1061,0.0
1079,0.0
2,1, 1, 1, 0, 6, 0.00,60.00,Holiday
9,88670631.39700428
45,20186052.19281932
107,29481120.0
170,530064617.2911633
206,30058920.000000005
279,14011313.053806842
304,5467565.030101409
486,72000.0
623,41701833.18568707
648,4842744.061262796
769,0.0
918,15222087.243232048
958,18291600.0
995,202613.95309449043
1008,22206.930851485828
1023,390018773.9723818
1048,499933697.2911633
1061,0.0
1079,0.0
2,1, 1, 1, 0, 7, 0.00,60.00,Holiday
9,149909093.08336238
45,40372104.38563864
107,69928200.0
170,543210681.9355934
206,60117840.00000001
279,15835720.56384774
304,6051229.625447039
486,17039175.56961823
623,15520691.310194903
648,6037655.85839169
769,12845721.464660403
918,15222087.243232048
958,18291600.0
995,387244.55136068598
1008,43871.82126182817
1023,363521859.76546069
1048,466053666.3659752
1061,0.0
1079,0.007782821981858123
2,1, 1, 1, 0, 8, 0.00,60.00,Holiday
9,163056774.60542573
45,40372104.38563864
107,96892920.0
170,523375522.35119149
206,90176760.0
279,15695545.801524103
304,5956093.173809724
486,19159479.593579268
623,0.0
648,26880855.417514817
769,12845729.786302114
918,15222087.243232048
958,4572900.0
995,344758.76912783549
1008,40669.794961622756
1023,322950640.55093756
1048,414039282.7576122
1061,0.0
1079,0.007783644442497174
2,1, 1, 1, 0, 9, 0.00,60.00,Holiday
9,158509605.29107628
45,40372104.38563864
107,96892920.0
170,529736223.98138228
206,120235680.00000002
279,16051389.995935172
304,6017011.290813669
486,17036303.19460572
623,0.0
648,32647618.86461761
769,12845728.658401505
918,15222087.243232046
958,0.0
995,45374.431358206144
1008,5482.363613085933
1023,306122107.81368568
1048,392464240.7867765
1061,0.0
1079,0.007778818066383109
2,1, 1, 1, 0,10, 0.00,60.00,Holiday
9,131557435.87014053
45,40372104.38563864
107,69928200.0
170,495928805.033472
206,90176760.0
279,16163202.502012633
304,6035044.233487301
486,17041252.131553677
623,0.0
648,14416401.48398732
769,12845729.526085765
918,15222087.243232048
958,0.0
995,0.0
1008,0.0
1023,303195830.5247313
1048,388710792.9019183
1061,0.0
1079,0.007782533606509543
2,1, 1, 1, 0,11, 0.00,60.00,Holiday
9,158564887.66690118
45,40372104.38563864
107,96892920.0
170,559028342.8923869
206,150294600.0
279,16290096.670128879
304,6057401.470460445
486,55754823.84426978
623,0.0
648,21134744.5232702
769,42819095.22018606
918,15222087.243232046
958,0.0
995,160790.68850121398
1008,20374.541633419085
1023,275323556.8575313
1048,352978919.04811707
1061,0.0
1079,0.02593663007011124
2,1, 1, 1, 0,12, 0.00,60.00,Holiday
9,161355317.05183859
45,40372104.38563864
107,96892920.0
170,522698116.71526589
206,150294600.0
279,19406706.990028666
304,8868205.397028948
486,55759819.251963239
623,0.0
648,29597381.082107657
769,42819098.87694775
918,15222087.243232048
958,0.0
995,0.0
1008,0.0
1023,246982084.02137605
1048,316643697.4633026
1061,0.0
1079,0.025938942819889754
2,1, 1, 1, 0,13, 0.00,60.00,Holiday
9,158759655.41346205
45,40372104.38563864
107,96892920.0
170,475774886.3012115
206,150294600.0
279,17218819.931798836
304,6272543.763840228
486,44923655.838820178
623,0.0
648,42425025.69963415
769,34255278.42636414
918,15222087.243232048
958,0.0
995,0.0
1008,0.0
1023,218834171.76066525
1048,280556630.4623913
1061,0.0
1079,0.020751101162337184
2,1, 1, 1, 0,14, 0.00,60.00,Holiday
9,131681395.52123168
45,40372104.38563864
107,69928200.0
170,433443752.4428683
206,120235680.00000002
279,16891335.33857481
304,6159003.8716098689
486,44913570.800231087
623,0.0
648,38811277.339993339
769,34255277.80689242
918,15222087.243232048
958,0.0
995,0.0
1008,0.0
1023,209272951.37466265
1048,268294501.64263714
1061,0.0
1079,0.020751117407025948
2,1, 1, 1, 0,15, 0.00,60.00,Holiday
9,131688723.25335466
45,40372104.38563864
107,69928200.0
170,401430008.25583526
206,90176760.0
279,16939042.345240375
304,6166331.608921176
486,34151355.171508509
623,0.0
648,27143341.39538604
769,25691451.599484885
918,15222087.243232048
958,0.0
995,0.0
1008,0.0
1023,216141616.99565763
1048,277101893.08432677
1061,0.0
1079,0.015562777184388074
2,1, 1, 1, 0,16, 0.00,60.00,Holiday
9,131645814.78312469
45,40372104.38563864
107,69928200.0
170,440117331.3726821
206,120235680.00000002
279,16682091.033201447
304,6123423.138691395
486,34149225.43816794
623,0.0
648,20719132.054380135
769,25691459.709490245
918,15222087.243232048
958,0.0
995,0.0
1008,0.0
1023,222871292.22892104
1048,285732425.9345141
1061,0.0
1079,0.015562607328834423
2,1, 1, 1, 0,17, 0.00,60.00,Holiday
9,172131639.52821595
45,40372104.38563864
107,96892920.0
170,491921307.9209991
206,180353520.0
279,15288216.056075573
304,5892558.1557597
486,34147135.967215228
623,0.0
648,27917873.228346766
769,25691459.709728205
918,15222087.243232048
958,13718700.0
995,238477.57580739735
1008,33269.72802273539
1023,216388108.5239514
1048,277420651.95378389
1061,0.0
1079,0.015562817272859273
2,1, 1, 1, 0,18, 0.00,60.00,Holiday
9,176717275.73427467
45,40372104.38563864
107,96892920.0
170,500363409.5801037
206,180353520.0
279,15558764.78767478
304,5938564.084652974
486,44918182.17833119
623,0.0
648,33761993.65169269
769,34255276.94343017
918,15222087.243232048
958,18291600.0
995,0.0
1008,0.0
1023,214571531.77338255
1048,275091707.40177246
1061,0.0
1079,0.02075097179949748
2,1, 1, 1, 0,19, 0.00,60.00,Holiday
9,176733691.66654868
45,40372104.38563864
107,96892920.0
170,503788421.6421457
206,180353520.0
279,15655769.33224362
304,5954980.011738648
486,55751607.189776558
623,0.0
648,45893155.83621185
769,42819058.60680291
918,15222087.243232048
958,18291600.0
995,0.0
1008,0.0
1023,208792969.6728479
1048,267683294.4523691
1061,0.0
1079,0.025939303421430826
2,1, 1, 1, 0,20, 0.00,60.00,Holiday
9,150254626.0031234
45,40372104.38563864
107,69928200.0
170,433383617.42366656
206,120235680.00000002
279,17683282.49000738
304,6440634.348313483
486,55758365.659372579
623,0.0
648,47533880.92022637
769,42819098.60728552
918,15222087.243232048
958,18291600.0
995,0.0
1008,0.0
1023,200769920.86074049
1048,257389571.7642939
1061,0.0
1079,0.025939223649843247
2,1, 1, 1, 0,21, 0.00,60.00,Holiday
9,150194750.69069303
45,40372104.38563864
107,69928200.0
170,417713091.02544918
206,120235680.00000002
279,17383424.188691737
304,6380759.0410713669
486,44917918.60717597
623,0.0
648,51022215.38442832
769,34255278.69821726
918,15222087.243232048
958,18291600.0
995,0.0
1008,0.0
1023,196996404.0862531
1048,252559492.4182732
1061,0.0
1079,0.020750966155475699
2,1, 1, 1, 0,22, 0.00,60.00,Holiday
9,149942028.69828848
45,40372104.38563864
107,69928200.0
170,423082378.7704653
206,90176760.0
279,16276399.56586191
304,6128037.04347788
486,55762821.86324578
623,0.0
648,30137235.80313597
769,42819097.12084864
918,15222087.243232048
958,18291600.0
995,0.0
1008,0.0
1023,216171381.58763127
1048,277142796.9072195
1061,0.0
1079,0.025939926084052678
2,1, 1, 1, 0,23, 0.00,60.00,Holiday
9,149543955.13622044
45,40372104.38563864
107,69928200.0
170,397450415.91401919
206,60117840.00000001
279,14530982.264801722
304,5729963.48659848
486,44922889.421189967
623,0.0
648,19761806.69554739
769,34255278.59941426
918,15222087.243232048
958,18291600.0
995,0.0
1008,0.0
1023,228082038.15418775
1048,292409686.49282917
1061,0.0
1079,0.020751279290984766
2,1, 1, 1, 0,24, 0.00,60.00,Holiday
9,152451101.11521945
45,40372104.38563864
107,69928200.0
170,350554388.3778356
206,30058920.000000005
279,18020131.46370465
304,8637109.475974944
486,23431475.313750864
623,0.0
648,18547374.794214757
769,17127610.25401765
918,15222087.243232048
958,18291600.0
995,0.0
1008,0.0
1023,231713690.87664125
1048,297063993.0640847
1061,0.0
1079,0.010373809805291359
2,2, 1, 2, 0, 1, 0.00,60.00,Monday
9,88421999.39975819
45,20186052.19281932
107,29481120.0
170,392757223.4421161
206,12023568.0
279,13343363.031421379
304,5241139.953328831
486,23431662.537038648
623,15543817.926422235
648,2557665.984366495
769,17158885.778576487
918,15222087.243232048
958,18291600.0
995,0.0
1008,0.0
1023,278703812.56769767
1048,357301992.9050774
1061,0.0
1079,0.010377981293898076
2,2, 1, 2, 0, 2, 0.00,60.00,Monday
9,56841833.735151607
45,6728684.064273106
107,26964720.0
170,14207812.578605183
206,12023568.0
279,12409667.288938225
304,4856829.670878495
486,2184244.578605182
623,0.0
648,0.0
769,0.0
918,0.0
958,18291600.0
995,0.0
1008,0.0
1023,0.0
1048,0.0
1061,0.0
1079,0.0
2,2, 1, 2, 0, 3, 0.00,60.00,Monday
9,56823018.372358087
45,6728684.064273106
107,26964720.0
170,12095568.0
206,12023568.0
279,12293277.476672
304,4838014.30808499
486,72000.0
623,0.0
648,0.0
769,0.0
918,0.0
958,18291600.0
995,0.0
1008,0.0
1023,0.0
1048,0.0
1061,0.0
1079,0.0
2,2, 1, 2, 0, 4, 0.00,60.00,Monday
9,56794281.04126688
45,6728684.064273106
107,26964720.0
170,12095568.0
206,12023568.0
279,12121049.950964895
304,4809276.976993782
486,72000.0
623,0.0
648,0.0
769,0.0
918,0.0
958,18291600.0
995,0.0
1008,0.0
1023,0.0
1048,0.0
1061,0.0
1079,0.0
2,2, 1, 2, 0, 5, 0.00,60.00,Monday
9,57292569.94605888
45,6728684.064273106
107,26964720.0
170,14207834.411565796
206,12023568.0
279,14221058.806843009
304,5307565.881785774
486,2184266.4115657976
623,0.0
648,0.0
769,0.0
918,0.0
958,18291600.0
995,0.0
1008,0.0
1023,0.0
1048,0.0
1061,0.0
1079,0.0
2,2, 1, 2, 0, 6, 0.00,60.00,Monday
9,88811546.12301718
45,20186052.19281932
107,29481120.0
170,367892761.7623613
206,30058920.000000005
279,14528399.872910278
304,5555382.650875501
486,72000.0
623,23287699.801154443
648,3380518.362978507
769,0.0
918,15222087.243232048
958,18291600.0
995,562962.5146208735
1008,75304.03609030164
1023,263481543.96822915
1048,337761841.7623613
1061,0.0
1079,0.0
2,2, 1, 2, 0, 7, 0.00,60.00,Monday
9,149990400.7356846
45,40372104.38563864
107,69928200.0
170,384803067.9457376
206,60117840.00000001
279,16262446.389747587
304,6123860.544879133
486,19159111.66265241
623,1690341.2483509978
648,3848146.7743376574
769,12869165.942046935
918,15222087.243232048
958,18291600.0
995,386626.41269207236
1008,52548.55414981715
1023,238310370.7008065
1048,305526116.2830852
1061,0.0
1079,0.007784983756684019
2,2, 1, 2, 0, 8, 0.00,60.00,Monday
9,163185803.59872715
45,40372104.38563864
107,96892920.0
170,426815548.3216082
206,90176760.0
279,16305345.073392686
304,6060585.312706899
486,66664893.32308589
623,0.0
648,28108344.40314202
769,51476642.34239384
918,15222087.243232048
958,4572900.0
995,467508.1442824738
1008,65206.62601526204
1023,210579638.0988474
1048,269973894.9985223
1061,0.0
1079,0.031134267789320034
2,2, 1, 2, 0, 9, 0.00,60.00,Monday
9,158615207.41020049
45,40372104.38563864
107,96892920.0
170,441053275.7272552
206,120235680.00000002
279,16702616.672631033
304,6128095.75278483
486,60122195.26554577
623,0.0
648,30356362.419720528
769,47186920.10132163
918,15222087.243232048
958,0.0
995,0.0
1008,0.0
1023,203342412.36013336
1048,260695400.46170945
1061,0.0
1079,0.028544935726546214
2,2, 1, 2, 0,10, 0.00,60.00,Monday
9,131686805.27428372
45,40372104.38563864
107,69928200.0
170,395980245.23527327
206,90176760.0
279,16845413.968341285
304,6164413.622063081
486,51412798.84035696
623,0.0
648,27822466.09702161
769,38607485.770941119
918,15222087.243232048
958,0.0
995,0.0
1008,0.0
1023,198429091.375444
1048,254390686.3949163
1061,0.0
1079,0.023349960555588864
2,2, 1, 2, 0,11, 0.00,60.00,Monday
9,158703697.79845969
45,40372104.38563864
107,96892920.0
170,443746935.10413888
206,150294600.0
279,16777791.420322759
304,6184660.409089011
486,44918686.07292358
623,0.0
648,22574228.90688071
769,34317759.60126534
918,15222087.243232048
958,0.0
995,220100.4326778842
1008,31925.739740086177
1023,193856246.24434788
1048,248533649.03121526
1061,0.0
1079,0.020759902625285193
2,2, 1, 2, 0,12, 0.00,60.00,Monday
9,161441877.67901499
45,40372104.38563864
107,96892920.0
170,419135579.94995418
206,150294600.0
279,19752789.08860837
304,8954766.02679223
486,51399211.02167232
623,0.0
648,41743699.46512048
769,38607497.489967528
918,15222087.243232048
958,0.0
995,0.0
1008,0.0
1023,169604579.76405985
1048,217441768.92828185
1061,0.0
1079,0.023352067985551375
2,2, 1, 2, 0,13, 0.00,60.00,Monday
9,158891617.8105019
45,40372104.38563864
107,96892920.0
170,386910886.9165235
206,150294600.0
279,17651760.55155262
304,6404506.16087322
486,44920899.63128317
623,0.0
648,61887029.81464577
769,34317771.99320464
918,15222087.243232048
958,0.0
995,0.0
1008,0.0
1023,149522402.08248747
1048,191695387.2852403
1061,0.0
1079,0.020757966984746687
2,2, 1, 2, 0,14, 0.00,60.00,Monday
9,131773997.6391575
45,40372104.38563864
107,69928200.0
170,377902954.21939888
206,120235680.00000002
279,17303874.10881705
304,6251605.992121932
486,38461091.38392653
623,0.0
648,52504963.57049528
769,30028027.06706982
918,15222087.243232048
958,0.0
995,0.0
1008,0.0
1023,170986966.96482987
1048,219206182.83547236
1061,0.0
1079,0.018164884001682044
2,2, 1, 2, 0,15, 0.00,60.00,Monday
9,131754844.1936447
45,40372104.38563864
107,69928200.0
170,381859460.6953355
206,90176760.0
279,17322225.215926209
304,6232452.5492057059
486,34153829.48767398
623,0.0
648,34705708.22973428
769,25738331.77724097
918,15222087.243232048
958,0.0
995,0.0
1008,0.0
1023,200872519.54197596
1048,257528871.2076615
1061,0.0
1079,0.015568308762804476
2,2, 1, 2, 0,16, 0.00,60.00,Monday
9,131717247.21429047
45,40372104.38563864
107,69928200.0
170,420008880.6851902
206,120235680.00000002
279,17051908.70595814
304,6194855.569851612
486,34152519.78183025
623,0.0
648,22420309.224412335
769,25738332.76085841
918,15222087.243232048
958,0.0
995,0.0
1008,0.0
1023,207184131.1046208
1048,265620680.90335999
1061,0.0
1079,0.015568162236683444
2,2, 1, 2, 0,17, 0.00,60.00,Monday
9,172213006.738555
45,40372104.38563864
107,96892920.0
170,465136385.07338777
206,180353520.0
279,15617026.69429352
304,5969579.758449312
486,34151234.40470709
623,0.0
648,29566195.571192486
769,25738332.764096567
918,15222087.243232048
958,13718700.0
995,258732.9708350216
1008,37615.335666731466
1023,195492671.9215709
1048,250631630.66868068
1061,0.0
1079,0.015568251657092129
2,2, 1, 2, 0,18, 0.00,60.00,Monday
9,176779141.25658194
45,40372104.38563864
107,96892920.0
170,467781378.2348393
206,180353520.0
279,15902948.401408116
304,6000429.606952089
486,44923562.56846249
623,0.0
648,44350272.92192352
769,34317768.32428656
918,15222087.243232048
958,18291600.0
995,0.0
1008,0.0
1023,189153350.61977399
1048,242504295.6663769
1061,0.0
1079,0.02075912878303326
2,2, 1, 2, 0,19, 0.00,60.00,Monday
9,176824380.11204646
45,40372104.38563864
107,96892920.0
170,456152405.9067297
206,180353520.0
279,16036464.429695674
304,6028225.184926629
486,62273712.22907889
623,0.0
648,63726419.063226457
769,47186942.978715877
918,15222087.243232048
958,18291600.0
995,119805.84552275679
1008,17443.26970825518
1023,166549635.4685676
1048,213525173.6776508
1061,0.0
1079,0.028540857375648246
2,2, 1, 2, 0,20, 0.00,60.00,Monday
9,150356465.66452683
45,40372104.38563864
107,69928200.0
170,392941916.12743887
206,120235680.00000002
279,18094938.188722154
304,6542474.004518207
486,66651518.6545916
623,0.0
648,59885990.50276203
769,51476602.83211071
918,15222087.243232048
958,18291600.0
995,0.0
1008,0.0
1023,160726544.5642153
1048,206054717.4728472
1061,0.0
1079,0.031137923639380076
2,2, 1, 2, 0,21, 0.00,60.00,Monday
9,150313814.1377662
45,40372104.38563864
107,69928200.0
170,373161439.8563784
206,120235680.00000002
279,17784478.48986563
304,6499822.482946809
486,55756570.804026249
623,0.0
648,60410361.02648407
769,42897209.1031284
918,15222087.243232048
958,18291600.0
995,0.0
1008,0.0
1023,153791967.46083463
1048,197169189.05235208
1061,0.0
1079,0.02594872434302398
2,2, 1, 2, 0,22, 0.00,60.00,Monday
9,150079079.82586808
45,40372104.38563864
107,69928200.0
170,364405646.23848649
206,90176760.0
279,16681799.956051022
304,6265088.168456597
486,62275556.57884215
623,0.0
648,42607448.26246891
769,47186942.80104161
918,15222087.243232048
958,18291600.0
995,0.0
1008,0.0
1023,165323597.1345226
1048,211953329.65964438
1061,0.0
1079,0.02854080323134737
2,2, 1, 2, 0,23, 0.00,60.00,Monday
9,149641098.68606249
45,40372104.38563864
107,69928200.0
170,354323161.11089059
206,60117840.00000001
279,14938688.420506344
304,5827107.033836158
486,51393442.77144867
623,0.0
648,32168927.294906558
769,38607498.959897417
918,15222087.243232048
958,18291600.0
995,0.0
1008,0.0
1023,189396036.8077989
1048,242811878.3394419
1061,0.0
1079,0.02335563414022719
2,2, 1, 2, 0,24, 0.00,60.00,Monday
9,152506576.69062419
45,40372104.38563864
107,69928200.0
170,325976139.8403563
206,30058920.000000005
279,18352984.90054453
304,8692585.048781593
486,27714539.72607899
623,0.0
648,21821021.43293275
769,21448609.30118341
918,15222087.243232048
958,18291600.0
995,0.0
1008,0.0
1023,209201943.2146157
1048,268202680.1142773
1061,0.0
1079,0.012971909099415976
2,3, 1, 3, 0, 1, 0.00,60.00,Tuesday
9,88482092.96236003
45,20186052.19281932
107,29481120.0
170,341315448.8759696
206,12023568.0
279,13706453.41621749
304,5301233.515926089
486,23433076.395875388
623,9992331.21284985
648,1854256.589589512
769,17189534.0225562
918,15222087.243232048
958,18291600.0
995,0.0
1008,0.0
1023,238577558.7252368
1048,305858804.48009428
1061,0.0
1079,0.010382552312461238
2,3, 1, 3, 0, 2, 0.00,60.00,Tuesday
9,56916416.989239599
45,6728684.064273106
107,26964720.0
170,12095568.0
206,12023568.0
279,12851237.432285522
304,4931412.9249664959
486,72000.0
623,0.0
648,0.0
769,0.0
918,0.0
958,18291600.0
995,0.0
1008,0.0
1023,0.0
1048,0.0
1061,0.0
1079,0.0
2,3, 1, 3, 0, 3, 0.00,60.00,Tuesday
9,56926414.94752954
45,6728684.064273106
107,26964720.0
170,14207744.115493784
206,12023568.0
279,12829894.638518423
304,4941410.883256437
486,2184176.1154937834
623,0.0
648,0.0
769,0.0
918,0.0
958,18291600.0
995,0.0
1008,0.0
1023,0.0
1048,0.0
1061,0.0
1079,0.0
2,3, 1, 3, 0, 4, 0.00,60.00,Tuesday
9,56902802.66021451
45,6728684.064273106
107,26964720.0
170,12095568.0
206,12023568.0
279,12718127.872691049
304,4917798.595941413
486,72000.0
623,0.0
648,0.0
769,0.0
918,0.0
958,18291600.0
995,0.0
1008,0.0
1023,0.0
1048,0.0
1061,0.0
1079,0.0
2,3, 1, 3, 0, 5, 0.00,60.00,Tuesday
9,59241842.77596125
45,6728684.064273106
107,26964720.0
170,14207766.057470348
206,12023568.0
279,22680480.28583884
304,7256838.711688144
486,2184198.057470346
623,0.0
648,0.0
769,0.0
918,0.0
958,18291600.0
995,0.0
1008,0.0
1023,0.0
1048,0.0
1061,0.0
1079,0.0
2,3, 1, 3, 0, 6, 0.00,60.00,Tuesday
9,90667015.17529318
45,20186052.19281932
107,29481120.0
170,373890391.12462499
206,30058920.000000005
279,22580091.320613624
304,7427403.093558205
486,72000.0
623,19980023.542178725
648,3407152.010005437
769,0.0
918,15222087.243232048
958,18291600.0
995,435205.1823796619
1008,58752.6456835821
1023,268150590.02072598
1048,343759471.12462499
1061,0.0
1079,0.0
2,3, 1, 3, 0, 7, 0.00,60.00,Tuesday
9,150818218.3201928
45,40372104.38563864
107,69928200.0
170,412460983.87385526
206,60117840.00000001
279,19830170.887258363
304,6955916.654271375
486,17039109.885778253
623,893682.3525338594
648,4321167.978225723
769,12892151.878415214
918,15222087.243232048
958,18291600.0
995,367071.4420830546
1008,48310.02926211778
1023,261537146.51070003
1048,335304033.9880769
1061,0.0
1079,0.007788640959912882
2,3, 1, 3, 0, 8, 0.00,60.00,Tuesday
9,163179975.43195776
45,40372104.38563864
107,96892920.0
170,468783598.73916956
206,90176760.0
279,16291146.202933286
304,6058172.516203638
486,68808216.12332908
623,0.0
648,28549701.527427995
769,51568631.34923571
918,15222087.243232048
958,4572900.0
995,463602.0586436992
1008,61791.25573404535
1023,241642925.64035557
1048,309798622.61584046
1061,0.0
1079,0.031149371160291329
2,3, 1, 3, 0, 9, 0.00,60.00,Tuesday
9,158617274.77059306
45,40372104.38563864
107,96892920.0
170,497332887.65204468
206,120235680.00000002
279,16642393.451347229
304,6117801.65173229
486,60121436.96983463
623,0.0
648,30375558.98417908
769,47271248.0342312
918,15222087.243232048
958,0.0
995,92488.63742293275
1008,12361.461438853703
1023,247241101.13212384
1048,316975770.68221
1061,0.0
1079,0.028551180014805626
2,3, 1, 3, 0,10, 0.00,60.00,Tuesday
9,131648910.11576054
45,40372104.38563864
107,69928200.0
170,467772400.43269547
206,90176760.0
279,16698834.320387813
304,6126518.4635304999
486,51408677.20338732
623,0.0
648,27337975.6014735
769,38676473.6483502
918,15222087.243232048
958,0.0
995,0.0
1008,0.0
1023,254429041.95759107
1048,326186963.2293081
1061,0.0
1079,0.02335934553202387
2,3, 1, 3, 0,11, 0.00,60.00,Tuesday
9,158629933.66002075
45,40372104.38563864
107,96892920.0
170,524841770.54765167
206,150294600.0
279,16625761.286814046
304,6114910.368673211
486,44920937.11746953
623,0.0
648,21883206.47593345
769,34379065.48351635
918,15222087.243232048
958,0.0
995,210249.3855741765
1008,27911.641709978394
1023,257108462.07554207
1048,329626233.4301821
1061,0.0
1079,0.02076684059939113
2,3, 1, 3, 0,12, 0.00,60.00,Tuesday
9,161388206.6646102
45,40372104.38563864
107,96892920.0
170,498422857.69707718
206,150294600.0
279,19604044.682126106
304,8901095.012378522
486,51398429.70169282
623,0.0
648,40759430.03615749
769,38676475.34772083
918,15222087.243232048
958,0.0
995,0.0
1008,0.0
1023,231449265.83639986
1048,296729827.9953844
1061,0.0
1079,0.02336095662620506
2,3, 1, 3, 0,13, 0.00,60.00,Tuesday
9,158797621.9249157
45,40372104.38563864
107,96892920.0
170,458366020.60849538
206,150294600.0
279,17445106.137540845
304,6310510.2752796499
486,44917811.60983187
623,0.0
648,60711308.180566478
769,34379087.98661119
918,15222087.243232048
958,0.0
995,0.0
1008,0.0
1023,205259815.0189575
1048,263153608.99866347
1061,0.0
1079,0.02076534234338603
2,3, 1, 3, 0,14, 0.00,60.00,Tuesday
9,131716342.07494232
45,40372104.38563864
107,69928200.0
170,430039863.6590367
206,120235680.00000002
279,17094205.661094428
304,6193950.427900466
486,38462486.113430429
623,0.0
648,51610806.1406594
769,30081666.88273818
918,15222087.243232048
958,0.0
995,0.0
1008,0.0
1023,211652308.17987598
1048,271341697.54560628
1061,0.0
1079,0.01817116404531801
2,3, 1, 3, 0,15, 0.00,60.00,Tuesday
9,131710616.00180261
45,40372104.38563864
107,69928200.0
170,418296494.8425832
206,90176760.0
279,17065773.984564548
304,6188224.357357689
486,34155897.456240389
623,0.0
648,33983243.588797
769,25784300.27236631
918,15222087.243232048
958,0.0
995,0.0
1008,0.0
1023,229291793.1613474
1048,293963837.3863428
1061,0.0
1079,0.015574233118227732
2,3, 1, 3, 0,16, 0.00,60.00,Tuesday
9,131657498.19970826
45,40372104.38563864
107,69928200.0
170,464539001.17454805
206,120235680.00000002
279,16749877.543980947
304,6135106.555263742
486,34155313.7512517
623,0.0
648,21584141.180592598
769,25784317.258912378
918,15222087.243232048
958,0.0
995,0.0
1008,0.0
1023,241915445.7901711
1048,310148007.4232963
1061,0.0
1079,0.0155738145281082
2,3, 1, 3, 0,17, 0.00,60.00,Tuesday
9,172135114.9311851
45,40372104.38563864
107,96892920.0
170,516942066.7073575
206,180353520.0
279,15332426.959201575
304,5900180.255468577
486,34151246.13890401
623,0.0
648,28269253.36070687
769,25784312.14961422
918,15222087.243232048
958,13718700.0
995,214102.50439501718
1008,29123.031271984633
1023,235901094.44339378
1048,302437300.56845358
1061,0.0
1079,0.015573842938684154
2,3, 1, 3, 0,18, 0.00,60.00,Tuesday
9,176727885.4577841
45,40372104.38563864
107,96892920.0
170,508353175.10692849
206,180353520.0
279,15620132.39865629
304,5949173.80814698
486,44921630.7486143
623,0.0
648,43083755.34420547
769,34379071.54294727
918,15222087.243232048
958,18291600.0
995,0.0
1008,0.0
1023,220800858.99948503
1048,283078024.35831418
1061,0.0
1079,0.02076640608608503
2,3, 1, 3, 0,19, 0.00,60.00,Tuesday
9,176761103.49802954
45,40372104.38563864
107,96892920.0
170,501795106.3837216
206,180353520.0
279,15735002.617405544
304,5968624.2724664299
486,62271895.71907872
623,0.0
648,61915606.97199741
769,47271248.24725614
918,15222087.243232048
958,18291600.0
995,99835.8529004696
1008,13767.5681426145
1023,202152358.71842144
1048,259169690.66464288
1061,0.0
1079,0.02854977769071394
2,3, 1, 3, 0,20, 0.00,60.00,Tuesday
9,149755902.5463097
45,40372104.38563864
107,69928200.0
170,450699516.9883475
206,120235680.00000002
279,15577905.111872798
304,5941910.886287805
486,66652373.29632081
623,0.0
648,57608597.29212898
769,51568612.59536704
918,15222087.243232048
958,18291600.0
995,0.0
1008,0.0
1023,205776848.03738237
1048,263811463.69202665
1061,0.0
1079,0.03115123466749736
2,3, 1, 3, 0,21, 0.00,60.00,Tuesday
9,149726218.02949763
45,40372104.38563864
107,69928200.0
170,441994930.8790694
206,120235680.00000002
279,15402812.88876504
304,5912226.374671415
486,57901255.01130234
623,0.0
648,57757540.82178909
769,42973832.20988795
918,15222087.243232048
958,18291600.0
995,0.0
1008,0.0
1023,205809236.77685834
1048,263857995.86776705
1061,0.0
1079,0.02595555307408687
2,3, 1, 3, 0,22, 0.00,60.00,Tuesday
9,149583305.6747233
45,40372104.38563864
107,69928200.0
170,437633215.1101903
206,90176760.0
279,14763565.332802613
304,5769314.017300242
486,60123409.99604982
623,0.0
648,39429644.934118438
769,47271247.953076589
918,15222087.243232048
958,18291600.0
995,0.0
1008,0.0
1023,224119775.18902958
1048,287333045.11414048
1061,0.0
1079,0.028552372040513163
2,3, 1, 3, 0,23, 0.00,60.00,Tuesday
9,149553802.88734357
45,40372104.38563864
107,69928200.0
170,411823211.3906655
206,60117840.00000001
279,14588926.243657377
304,5739811.235113975
486,51410968.79721281
623,0.0
648,29155350.726644417
769,38676451.769527617
918,15222087.243232048
958,18291600.0
995,0.0
1008,0.0
1023,234232040.16303808
1048,300294402.59345266
1061,0.0
1079,0.023358892705250598
2,3, 1, 3, 0,24, 0.00,60.00,Tuesday
9,152459107.23744793
45,40372104.38563864
107,69928200.0
170,370744743.31929466
206,30058920.000000005
279,18068168.181433646
304,8645115.595596444
486,27718405.136596569
623,0.0
648,19052923.385339407
769,21486927.191313439
918,15222087.243232048
958,18291600.0
995,0.0
1008,0.0
1023,244118426.13330359
1048,312967418.182698
1061,0.0
1079,0.012980785340121008
2,4, 1, 4, 0, 1, 0.00,60.00,Wednesday
9,88427926.77457704
45,20186052.19281932
107,29481120.0
170,387706316.0892221
206,12023568.0
279,13381285.70352314
304,5247067.328139586
486,23430875.934963056
623,14668523.350555338
648,2465420.750107712
769,17219583.284990394
918,15222087.243232048
958,18291600.0
995,0.0
1008,0.0
1023,274764182.54640927
1048,352251872.1542591
1061,0.0
1079,0.010386078882034375
2,4, 1, 4, 0, 2, 0.00,60.00,Wednesday
9,56842317.63713661
45,6728684.064273106
107,26964720.0
170,14207865.522431724
206,12023568.0
279,12413115.153637823
304,4857313.572863509
486,2184297.522431723
623,0.0
648,0.0
769,0.0
918,0.0
958,18291600.0
995,0.0
1008,0.0
1023,0.0
1048,0.0
1061,0.0
1079,0.0
2,4, 1, 4, 0, 3, 0.00,60.00,Wednesday
9,56830239.95539814
45,6728684.064273106
107,26964720.0
170,12095568.0
206,12023568.0
279,12336139.24951213
304,4845235.891125042
486,72000.0
623,0.0
648,0.0
769,0.0
918,0.0
958,18291600.0
995,0.0
1008,0.0
1023,0.0
1048,0.0
1061,0.0
1079,0.0
2,4, 1, 4, 0, 4, 0.00,60.00,Wednesday
9,56807467.44098095
45,6728684.064273106
107,26964720.0
170,14207759.984902513
206,12023568.0
279,12198934.658764944
304,4822463.376707844
486,2184191.984902512
623,0.0
648,0.0
769,0.0
918,0.0
958,18291600.0
995,0.0
1008,0.0
1023,0.0
1048,0.0
1061,0.0
1079,0.0