Program Version,EnergyPlus, Version 9.2.0-921312fa1d, YMD=2020.12.22 17:46
1,5,Environment Title[],Latitude[deg],Longitude[deg],Time Zone[],Elevation[m]
2,8,Day of Simulation[],Month[],Day of Month[],DST Indicator[1=yes 0=no],Hour[],StartMinute[],EndMinute[],DayType
3,5,Cumulative Day of Simulation[],Month[],Day of Month[],DST Indicator[1=yes 0=no],DayType  ! When Daily Meters Requested
4,2,Cumulative Days of Simulation[],Month[]  ! When Monthly Meters Requested
5,1,Cumulative Days of Simulation[] ! When Run Period Meters Requested
6,1,Calendar Year of Simulation[] ! When Annual Meters Requested
9,1,Electricity:Facility [J] !Hourly
2217,1,Heating:Electricity [J] !Hourly
2125,1,Cooling:Electricity [J] !Hourly
45,1,InteriorLights:Electricity [J] !Hourly
2063,1,ExteriorLights:Electricity [J] !Hourly
457,1,InteriorEquipment:Electricity [J] !Hourly
2088,1,ExteriorEquipment:Electricity [J] !Hourly
2035,1,Fans:Electricity [J] !Hourly
2293,1,Pumps:Electricity [J] !Hourly
2242,1,HeatRejection:Electricity [J] !Hourly
739,1,Gas:Facility [J] !Hourly
2192,1,Heating:Gas [J] !Hourly
763,1,WaterSystems:Gas [J] !Hourly
2163,1,HeatRejection:EnergyTransfer [J] !Hourly
924,1,Heating:EnergyTransfer [J] !Hourly
949,1,Cooling:EnergyTransfer [J] !Hourly
1734,1,WaterSystems:EnergyTransfer [J] !Hourly
1891,1,HeatingCoils:EnergyTransfer [J] !Hourly
1967,1,CoolingCoils:EnergyTransfer [J] !Hourly
End of Data Dictionary
1,RUNPERIOD 1,  41.98, -87.92,  -6.00, 201.00
2,1, 1, 1, 0, 1, 0.00,60.00,Holiday
9,1037087145.5405349
45,134569963.08410803
457,538279852.336432
739,3388745149.770733
763,7882587.035318983
924,2265041062.8706696
949,142162615.48728699
1734,5654775.653159879
1891,2438075004.9412515
1967,719.6975027494905
2035,92297877.75956513
2063,221742000.0
2088,43999912.087912078
2125,0.0
2163,0.0
2192,3380862562.735414
2217,0.0
2242,0.0
2293,6197540.272517738
2,1, 1, 1, 0, 2, 0.00,60.00,Holiday
9,1022374263.312305
45,134569963.08410803
457,538279852.336432
739,3066937746.9872486
763,7882868.062500402
924,2227562277.676675
949,106179320.09892431
1734,5654775.602717774
1891,2354676634.782373
1967,843.3261573872753
2035,76914898.13297095
2063,221742000.0
2088,43999912.087912078
2125,0.0
2163,0.0
2192,3059054878.924748
2217,0.0
2242,0.0
2293,6867637.670881887
2,1, 1, 1, 0, 3, 0.00,60.00,Holiday
9,1044601881.4609552
45,134569963.08410803
457,538279852.336432
739,4101354545.235015
763,7882346.812517152
924,2943671213.209061
949,134063043.93527085
1734,5654775.617259882
1891,3098992845.555981
1967,0.0
2035,96143622.66621368
2063,221742000.0
2088,43999912.087912078
2125,0.0
2163,0.0
2192,4093472198.4224979
2217,0.0
2242,0.0
2293,9866531.286289256
2,1, 1, 1, 0, 4, 0.00,60.00,Holiday
9,1022383277.188803
45,134569963.08410803
457,538279852.336432
739,3072558980.147539
763,7882958.03709703
924,2239759651.353677
949,97787766.243898
1734,5654775.595219892
1891,2376344449.052204
1967,0.0
2035,76914898.13297095
2063,221742000.0
2088,43999912.087912078
2125,0.0
2163,0.0
2192,3064676022.110442
2217,0.0
2242,0.0
2293,6876651.547379846
2,1, 1, 1, 0, 5, 0.00,60.00,Holiday
9,1088671098.208758
45,134569963.08410803
457,538279852.336432
739,4139153317.1938168
763,7882649.134353714
924,2964433078.367927
949,126686734.93451494
1734,5654775.658661466
1891,3126945832.474164
1967,0.0
2035,96143622.66621368
2063,221742000.0
2088,87999824.17582415
2125,0.0
2163,0.0
2192,4131270668.059463
2217,0.0
2242,0.0
2293,9935835.946180037
2,1, 1, 1, 0, 6, 0.00,60.00,Holiday
9,1154439743.3086148
45,134569963.08410803
457,538279852.336432
739,3096757298.850149
763,7893714.899454114
924,2253965523.9819629
949,92439751.1163202
1734,9895854.785064603
1891,2395643616.6688787
1967,0.0
2035,76914898.13297095
2063,221742000.0
2088,175999648.3516483
2125,0.0
2163,0.0
2192,3088863583.950695
2217,0.0
2242,0.0
2293,6933381.403455481
2,1, 1, 1, 0, 7, 0.00,60.00,Holiday
9,1352791463.5278762
45,134569963.08410803
457,538279852.336432
739,4185485433.153208
763,7882918.1738477549
924,2993418155.9891788
949,119539669.41086203
1734,5654775.510120371
1891,3159902153.482333
1967,0.0
2035,96143622.66621368
2063,221742000.0
2088,351999296.7032966
2125,0.0
2163,0.0
2192,4177602514.97936
2217,0.0
2242,0.0
2293,10056728.73782559
2,1, 1, 1, 0, 8, 0.00,60.00,Holiday
9,1270536188.5038706
45,134569963.08410803
457,538279852.336432
739,3058638299.9565389
763,7881996.743345448
924,2229277850.9740445
949,88196976.78381726
1734,5654775.670805822
1891,2373615629.418335
1967,0.0
2035,76914898.13297095
2063,73914000.0
2088,439999120.8791207
2125,0.0
2163,0.0
2192,3050756303.213193
2217,0.0
2242,0.0
2293,6858354.071238762
2,1, 1, 1, 0, 9, 0.00,60.00,Holiday
9,1216803494.7395144
45,134569963.08410803
457,538279852.336432
739,3485048749.757172
763,7882822.087487767
924,2489976730.207723
949,146727790.6723974
1734,5654775.427335453
1891,2639812647.591873
1967,0.0
2035,96143622.66621368
2063,0.0
2088,439999120.8791207
2125,0.0
2163,0.0
2192,3477165927.669685
2217,0.0
2242,0.0
2293,7810935.773639794
2,1, 1, 1, 0,10, 0.00,60.00,Holiday
9,1062186302.5424258
45,134569963.08410803
457,538279852.336432
739,2191068129.3375999
763,7882297.994171441
924,1575468873.9324556
949,134863486.68276835
1734,5654775.682671129
1891,1696658890.9652844
1967,1570.5744006273222
2035,76914898.13297095
2063,0.0
2088,307999384.6153846
2125,0.0
2163,0.0
2192,2183185831.343428
2217,0.0
2242,0.0
2293,4422204.373530135
2,1, 1, 1, 0,11, 0.00,60.00,Holiday
9,906303877.7569695
45,134569963.08410803
457,538279852.336432
739,2549390662.306177
763,7882909.501749837
924,1809054479.8904727
949,225341164.69686235
1734,5654775.478668017
1891,1920473961.209442
1967,0.0
2035,96143622.66621368
2063,0.0
2088,131999736.26373624
2125,0.0
2163,0.0
2192,2541507752.804427
2217,0.0
2242,0.0
2293,5310703.406479431
2,1, 1, 1, 0,12, 0.00,60.00,Holiday
9,885111172.8819249
45,134569963.08410803
457,538279852.336432
739,1712204661.1397832
763,15707657.854927224
924,1263692229.3254703
949,200960435.4035676
1734,8482163.505877411
1891,1350985122.5294586
1967,0.0
2035,76914898.13297095
2063,0.0
2088,131999736.26373624
2125,0.0
2163,0.0
2192,1696497003.284856
2217,0.0
2242,0.0
2293,3346723.064677562
2,1, 1, 1, 0,13, 0.00,60.00,Holiday
9,905318463.0161154
45,134569963.08410803
457,538279852.336432
739,2295848360.4481885
763,7889674.81486978
924,1605795252.5815473
949,197027802.5521644
1734,8482163.480205242
1891,1773161772.5158087
1967,0.0
2035,96143622.66621368
2063,0.0
2088,131999736.26373624
2125,0.0
2163,0.0
2192,2287958685.6333186
2217,0.0
2242,0.0
2293,4325288.665625399
2,1, 1, 1, 0,14, 0.00,60.00,Holiday
9,884691032.7298762
45,134569963.08410803
457,538279852.336432
739,1748910658.9748438
763,23558605.474328214
924,1222535205.2375859
949,135950537.60992898
1734,12723241.784978308
1891,1387466740.1715904
1967,0.0
2035,76914898.13297095
2063,0.0
2088,131999736.26373624
2125,0.0
2163,0.0
2192,1725352053.5005153
2217,0.0
2242,0.0
2293,2926582.912628824
2,1, 1, 1, 0,15, 0.00,60.00,Holiday
9,904863146.1195569
45,134569963.08410803
457,538279852.336432
739,2365443471.276131
763,7890156.866193055
924,1595270103.8330856
949,181298138.96468545
1734,8482163.238370378
1891,1790325722.9778696
1967,0.0
2035,96143622.66621368
2063,0.0
2088,131999736.26373624
2125,0.0
2163,0.0
2192,2357553314.409938
2217,0.0
2242,0.0
2293,3869971.7690669086
2,1, 1, 1, 0,16, 0.00,60.00,Holiday
9,884665073.3126937
45,134569963.08410803
457,538279852.336432
739,1834650137.07302
763,7882957.710403278
924,1266743521.6156679
949,134058813.75754425
1734,5654775.431296496
1891,1436982019.4408143
1967,0.0
2035,76914898.13297095
2063,0.0
2088,131999736.26373624
2125,0.0
2163,0.0
2192,1826767179.3626166
2217,0.0
2242,0.0
2293,2900623.495446465
2,1, 1, 1, 0,17, 0.00,60.00,Holiday
9,1229111952.9456895
45,134569963.08410803
457,538279852.336432
739,2610038491.3925426
763,7882221.2168789929
924,1744950474.1884986
949,173387230.65966077
1734,5654775.67755881
1891,1947645229.0294183
1967,0.0
2035,96143622.66621368
2063,147828000.0
2088,307999384.6153846
2125,0.0
2163,0.0
2192,2602156270.1756637
2217,0.0
2242,0.0
2293,4291130.243551136
2,1, 1, 1, 0,18, 0.00,60.00,Holiday
9,1414669182.571829
45,134569963.08410803
457,538279852.336432
739,1972008681.5545114
763,7882833.34871023
924,1365044662.0949257
949,125816706.43124742
1734,5654775.470761372
1891,1541077236.5737317
1967,0.0
2035,76914898.13297095
2063,221742000.0
2088,439999120.8791207
2125,0.0
2163,0.0
2192,1964125848.205801
2217,0.0
2242,0.0
2293,3163348.1391973339
2,1, 1, 1, 0,19, 0.00,60.00,Holiday
9,1435507881.4051638
45,134569963.08410803
457,538279852.336432
739,2814550196.234976
763,7882523.247704746
924,1884917714.7459417
949,164962980.1572874
1734,5654775.683422159
1891,2089185657.7974377
1967,0.0
2035,96143622.66621368
2063,221742000.0
2088,439999120.8791207
2125,0.0
2163,0.0
2192,2806667672.987271
2217,0.0
2242,0.0
2293,4773322.4392888839
2,1, 1, 1, 0,20, 0.00,60.00,Holiday
9,1326929105.5903793
45,134569963.08410803
457,538279852.336432
739,2064878730.5487614
763,7882920.276468665
924,1438367874.1969434
949,121865179.0882245
1734,5654775.520713704
1891,1617657170.2522836
1967,0.0
2035,76914898.13297095
2063,221742000.0
2088,351999296.7032966
2125,0.0
2163,0.0
2192,2056995810.2722927
2217,0.0
2242,0.0
2293,3423095.3335716
2,1, 1, 1, 0,21, 0.00,60.00,Holiday
9,1347486500.2985585
45,134569963.08410803
457,538279852.336432
739,2784152213.192196
763,7882825.1522359759
924,1870230472.3103822
949,162184964.10896746
1734,5654775.685824713
1891,2081984750.6433688
1967,0.0
2035,96143622.66621368
2063,221742000.0
2088,351999296.7032966
2125,0.0
2163,0.0
2192,2776269388.03996
2217,0.0
2242,0.0
2293,4751765.508507988
2,1, 1, 1, 0,22, 0.00,60.00,Holiday
9,1238897011.8321193
45,134569963.08410803
457,538279852.336432
739,2059822696.5783609
763,15714572.179853198
924,1424624607.2974025
949,121359273.94459845
1734,9895857.296494436
1891,1606301969.0525635
1967,0.0
2035,76914898.13297095
2063,221742000.0
2088,263999472.52747248
2125,0.0
2163,0.0
2192,2044108124.3985077
2217,0.0
2242,0.0
2293,3390825.7511355837
2,1, 1, 1, 0,23, 0.00,60.00,Holiday
9,1171658705.927379
45,134569963.08410803
457,538279852.336432
739,2858982596.637234
763,7882840.181056295
924,1917154689.0167745
949,160043131.2112677
1734,5654775.633071326
1891,2131938762.3016506
1967,0.0
2035,96143622.66621368
2063,221742000.0
2088,175999648.3516483
2125,0.0
2163,0.0
2192,2851099756.456178
2217,0.0
2242,0.0
2293,4923619.488976899
2,1, 1, 1, 0,24, 0.00,60.00,Holiday
9,1063111333.5548648
45,134569963.08410803
457,538279852.336432
739,2143468008.277375
763,7882316.196102028
924,1490854848.953457
949,118422554.16937703
1734,5654775.577177091
1891,1673406959.8551679
1967,2745.09764895488
2035,76914898.13297095
2063,221742000.0
2088,87999824.17582415
2125,0.0
2163,0.0
2192,2135585692.081273
2217,0.0
2242,0.0
2293,3604795.825529475
2,2, 1, 2, 0, 1, 0.00,60.00,Monday
9,1219523655.7277783
45,134569963.08410803
457,717706469.7819098
739,2971457325.585813
763,7885542.787685998
924,2042769014.4301272
949,210949699.4515503
1734,7083468.948206347
1891,2194371363.1260449
1967,0.0
2035,96143622.66621368
2063,221742000.0
2088,43999912.087912078
2125,0.0
2163,0.0
2192,2963571782.798127
2217,0.0
2242,0.0
2293,5361688.107634579
2,2, 1, 2, 0, 2, 0.00,60.00,Monday
9,1198908934.4025105
45,134569963.08410803
457,717706469.7819098
739,2207883390.2843449
763,7886652.619242088
924,1595665205.561747
949,163277999.37606705
1734,7083468.913051238
1891,1723416951.0707868
1967,0.0
2035,76914898.13297095
2063,221742000.0
2088,43999912.087912078
2125,0.0
2163,0.0
2192,2199996737.6651027
2217,0.0
2242,0.0
2293,3975691.315609446
2,2, 1, 2, 0, 3, 0.00,60.00,Monday
9,1219776174.2150827
45,134569963.08410803
457,717706469.7819098
739,2995049090.397225
763,15701032.713337895
924,2092100489.769277
949,221036593.89862383
1734,7083468.56466851
1891,2231771729.8648159
1967,0.0
2035,96143622.66621368
2063,221742000.0
2088,43999912.087912078
2125,0.0
2163,0.0
2192,2979348057.683887
2217,0.0
2242,0.0
2293,5614206.594938844
2,2, 1, 2, 0, 4, 0.00,60.00,Monday
9,1198884421.7547169
45,134569963.08410803
457,717706469.7819098
739,2188092274.915842
763,7886641.94259757
924,1587199842.8122192
949,165513586.35592426
1734,7083468.537660084
1891,1714136744.090214
1967,0.0
2035,76914898.13297095
2063,221742000.0
2088,43999912.087912078
2125,0.0
2163,0.0
2192,2180205632.973244
2217,0.0
2242,0.0
2293,3951178.6678161264
2,2, 1, 2, 0, 5, 0.00,60.00,Monday
9,1263428031.9749954
45,134569963.08410803
457,717706469.7819098
739,2847506808.946747
763,7885603.525211105
924,1997487412.9409147
949,223169976.861717
1734,7083468.951240784
1891,2145734143.6761425
1967,1857.8439147001976
2035,96143622.66621368
2063,221742000.0
2088,87999824.17582415
2125,0.0
2163,0.0
2192,2839621205.4215357
2217,0.0
2242,0.0
2293,5266152.266939522
2,2, 1, 2, 0, 6, 0.00,60.00,Monday
9,1464912537.9917088
45,269139926.16821607
457,717706469.7819098
739,2000676975.2556949
763,15722949.864144074
924,1448718769.9038149
949,182300563.66232506
1734,11333550.132718467
1891,1572890151.765603
1967,0.0
2035,76914898.13297095
2063,221742000.0
2088,175999648.3516483
2125,0.0
2163,0.0
2192,1984954025.3915513
2217,0.0
2242,0.0
2293,3409595.5569637117
2,2, 1, 2, 0, 7, 0.00,60.00,Monday
9,1710697687.850252
45,269139926.16821607
457,717706469.7819098
739,9089096261.085898
763,15714953.048710809
924,5563097959.999317
949,0.0
1734,9916856.385378182
1891,6631672785.282834
1967,903.3807729941609
2035,120498881.29917348
2063,221742000.0
2088,351999296.7032966
2125,0.0
2163,0.0
2192,9073381308.037186
2217,0.0
2242,0.0
2293,29611113.897656159
2,2, 1, 2, 0, 8, 0.00,60.00,Monday
9,2182218818.5631706
45,807419778.5046485
457,717706469.7819098
739,8611658113.756264
763,31526669.8283044
924,4466307667.777944
949,0.0
1734,26917136.37718211
1891,6605211485.963692
1967,0.0
2035,120498881.29917348
2063,73914000.0
2088,439999120.8791207
2125,0.0
2163,0.0
2192,8580131443.92796
2217,0.0
2242,0.0
2293,22680568.098318496
2,2, 1, 2, 0, 9, 0.00,60.00,Monday
9,4615058449.046837
45,2422259335.513945
457,1614839557.0092962
739,7140495728.779415
763,63458873.98784958
924,3281574433.9832317
949,21258510.692952023
1734,49584272.91627601
1891,5437179898.045153
1967,0.0
2035,120498881.29917348
2063,0.0
2088,439999120.8791207
2125,0.0
2163,0.0
2192,7077036854.791565
2217,0.0
2242,0.0
2293,17461554.34530266
2,2, 1, 2, 0,10, 0.00,60.00,Monday
9,4477938458.319735
45,2422259335.513945
457,1614839557.0092962
739,5896853454.510868
763,71483239.10623588
924,2537910006.9347517
949,66314149.33173531
1734,53834329.383425239
1891,4584302945.464995
1967,0.0
2035,120498881.29917348
2063,0.0
2088,307999384.6153846
2125,0.0
2163,0.0
2192,5825370215.404633
2217,0.0
2242,0.0
2293,12341299.881937113
2,2, 1, 2, 0,11, 0.00,60.00,Monday
9,4297963905.947331
45,2422259335.513945
457,1614839557.0092962
739,4950048283.431089
763,71508791.73158825
924,1912283854.5797308
949,116646958.63565716
1734,55250975.08879036
1891,3815642147.5896217
1967,0.0
2035,120498881.29917348
2063,0.0
2088,131999736.26373624
2125,0.0
2163,0.0
2192,4878539491.699502
2217,0.0
2242,0.0
2293,8366395.8611812
2,2, 1, 2, 0,12, 0.00,60.00,Monday
9,4295901042.725642
45,2422259335.513945
457,1614839557.0092962
739,4210587178.280429
763,79750797.84123442
924,1570317780.6719669
949,328084422.1710291
1734,66584376.41939808
1891,3225326758.4243056
1967,0.0
2035,120498881.29917348
2063,0.0
2088,131999736.26373624
2125,0.0
2163,0.0
2192,4130836380.439194
2217,0.0
2242,0.0
2293,6303532.639492693
2,2, 1, 2, 0,13, 0.00,60.00,Monday
9,4116372005.2336437
45,2422259335.513945
457,1435412939.5638197
739,4232776198.7244865
763,104157798.23740439
924,1447793035.7973564
949,298327656.76314279
1734,80751534.39035179
1891,3151859901.1712176
1967,0.0
2035,120498881.29917348
2063,0.0
2088,131999736.26373624
2125,0.0
2163,0.0
2192,4128618400.487082
2217,0.0
2242,0.0
2293,6201112.592971427
2,2, 1, 2, 0,14, 0.00,60.00,Monday
9,4294229343.935205
45,2422259335.513945
457,1614839557.0092962
739,3488722081.9289457
763,95993916.13491915
924,1262196444.4591816
949,734349599.71683
1734,76501461.86354335
1891,2676058726.963443
1967,0.0
2035,120498881.29917348
2063,0.0
2088,131999736.26373624
2125,0.0
2163,0.0
2192,3392728165.7940266
2217,0.0
2242,0.0
2293,4631833.849054272
2,2, 1, 2, 0,15, 0.00,60.00,Monday
9,4294072687.23231
45,2422259335.513945
457,1614839557.0092962
739,3515428080.6875717
763,63429882.9356378
924,1240476839.9799293
949,886678848.4034155
1734,48167579.97618693
1891,2654868233.7652766
1967,0.0
2035,120498881.29917348
2063,0.0
2088,131999736.26373624
2125,0.0
2163,0.0
2192,3451998197.7519338
2217,0.0
2242,0.0
2293,4475177.146160159
2,2, 1, 2, 0,16, 0.00,60.00,Monday
9,4293647635.041217
45,2422259335.513945
457,1614839557.0092962
739,3243851421.506794
763,55476109.82180361
924,1209058562.855854
949,1008429287.1523267
1734,46750893.34268616
1891,2461364349.2903578
1967,0.0
2035,120498881.29917348
2063,0.0
2088,131999736.26373624
2125,0.0
2163,0.0
2192,3188375311.68499
2217,0.0
2242,0.0
2293,4050124.955066674
2,2, 1, 2, 0,17, 0.00,60.00,Monday
9,4617176137.168012
45,2422259335.513945
457,1614839557.0092962
739,3079410557.2127726
763,79646214.42574407
924,1205203151.8551162
949,1114141361.3498159
1734,62334415.188344638
1891,2303000442.859927
1967,0.0
2035,120498881.29917348
2063,147828000.0
2088,307999384.6153846
2125,0.0
2163,0.0
2192,2999764342.7870285
2217,0.0
2242,0.0
2293,3750978.7302136335
2,2, 1, 2, 0,18, 0.00,60.00,Monday
9,4106145963.025257
45,1883979483.1775125
457,1435412939.5638197
739,3598097349.6900875
763,47405782.56350732
924,1308293157.766272
949,935640910.3204417
1734,36834038.75856052
1891,2682026215.4417269
1967,0.0
2035,120498881.29917348
2063,221742000.0
2088,439999120.8791207
2125,0.0
2163,0.0
2192,3550691567.1265795
2217,0.0
2242,0.0
2293,4513538.105632357
2,2, 1, 2, 0,19, 0.00,60.00,Monday
9,3210093163.6841576
45,1345699630.8410807
457,1076559704.672864
739,4168560997.9057867
763,39426372.269634108
924,1417220346.0155225
949,600802941.1794205
1734,29750533.527199367
1891,3109277976.5079295
1967,0.0
2035,120498881.29917348
2063,221742000.0
2088,439999120.8791207
2125,0.0
2163,0.0
2192,4129134625.6361525
2217,0.0
2242,0.0
2293,5593825.991918285
2,2, 1, 2, 0,20, 0.00,60.00,Monday
9,3121772959.239788
45,1345699630.8410807
457,1076559704.672864
739,3885410330.3972375
763,23620227.202119519
924,1374389251.5523215
949,615272478.8304174
1734,21250396.592263186
1891,2960862569.051513
1967,0.0
2035,120498881.29917348
2063,221742000.0
2088,351999296.7032966
2125,0.0
2163,0.0
2192,3861790103.1951177
2217,0.0
2242,0.0
2293,5273445.723372737
2,2, 1, 2, 0,21, 0.00,60.00,Monday
9,2405088889.9788138
45,807419778.5046485
457,897133087.2273873
739,4363836037.877888
763,31497989.408939586
924,1459916123.8670812
949,345213689.68030938
1734,24083787.02497077
1891,3253397348.082288
1967,0.0
2035,120498881.29917348
2063,221742000.0
2088,351999296.7032966
2125,0.0
2163,0.0
2192,4332338048.468948
2217,0.0
2242,0.0
2293,6295846.244309161
2,2, 1, 2, 0,22, 0.00,60.00,Monday
9,2316925315.6578967
45,807419778.5046485
457,897133087.2273873
739,4154893006.3604094
763,15720471.563417554
924,1427062372.6824537
949,340434136.65146616
1734,11333547.405032695
1891,3166864869.138266
1967,0.0
2035,120498881.29917348
2063,221742000.0
2088,263999472.52747248
2125,0.0
2163,0.0
2192,4139172534.796992
2217,0.0
2242,0.0
2293,6132096.099216057
2,2, 1, 2, 0,23, 0.00,60.00,Monday
9,1384597088.4073039
45,269139926.16821607
457,717706469.7819098
739,7886643.327374797
763,7886643.327374797
924,0.0
949,0.0
1734,7083468.9730972959
1891,0.0
1967,0.0
2035,0.0
2063,221742000.0
2088,175999648.3516483
2125,0.0
2163,0.0
2192,0.0
2217,0.0
2242,0.0
2293,9044.105529855404
2,2, 1, 2, 0,24, 0.00,60.00,Monday
9,1174909754.0168896
45,134569963.08410803
457,717706469.7819098
739,166813594.93966849
763,15701151.939922523
924,158038896.18544025
949,118663337.6152366
1734,7083468.960201462
1891,102148422.61222837
1967,0.0
2035,12653804.97611017
2063,221742000.0
2088,87999824.17582415
2125,0.0
2163,0.0
2192,151112442.99974597
2217,0.0
2242,0.0
2293,237691.99893727894
2,3, 1, 3, 0, 1, 0.00,60.00,Tuesday
9,1207085424.0785883
45,134569963.08410803
457,717706469.7819098
739,579357540.5165651
763,7886650.83820871
924,476322107.6481481
949,799204818.9303203
1734,7098183.443273779
1891,561200720.1103786
1967,0.0
2035,88278866.6596765
2063,221742000.0
2088,43999912.087912078
2125,0.0
2163,0.0
2192,571470889.6783564
2217,0.0
2242,0.0
2293,788212.4649817691
2,3, 1, 3, 0, 2, 0.00,60.00,Tuesday
9,1189573137.6249684
45,134569963.08410803
457,717706469.7819098
739,750530846.4306672
763,7886107.285065337
924,510607919.33630588
949,615224840.1938163
1734,7098183.759110823
1891,587775320.5291159
1967,0.0
2035,70623093.3277412
2063,221742000.0
2088,43999912.087912078
2125,0.0
2163,0.0
2192,742644739.145602
2217,0.0
2242,0.0
2293,931699.3432971747
2,3, 1, 3, 0, 3, 0.00,60.00,Tuesday
9,1211925135.1877576
45,134569963.08410803
457,717706469.7819098
739,1011035017.7394607
763,7886394.137664295
924,666027393.6654828
949,771255892.5128684
1734,7098184.00587203
1891,794761219.821907
1967,0.0
2035,92683130.02333732
2063,221742000.0
2088,43999912.087912078
2125,0.0
2163,0.0
2192,1003148623.6017964
2217,0.0
2242,0.0
2293,1223660.2104899917
2,3, 1, 3, 0, 4, 0.00,60.00,Tuesday
9,1197189124.2342714
45,134569963.08410803
457,717706469.7819098
739,1081946603.6143854
763,15699891.370937463
924,664341616.2847786
949,644782858.796133
1734,7098184.0272598699
1891,775620493.8232395
1967,0.0
2035,77858668.8537554
2063,221742000.0
2088,43999912.087912078
2125,0.0
2163,0.0
2192,1066246712.243448
2217,0.0
2242,0.0
2293,1312110.4265858788
2,3, 1, 3, 0, 5, 0.00,60.00,Tuesday
9,1258293773.1651848
45,134569963.08410803
457,717706469.7819098
739,1345658524.1062954
763,7886509.199103392
924,865025237.4154477
949,743687827.7087319
1734,7098183.632750469
1891,1008912823.9196174
1967,0.0
2035,94570671.46490623
2063,221742000.0
2088,87999824.17582415
2125,0.0
2163,0.0
2192,1337772014.907192
2217,0.0
2242,0.0
2293,1704844.6584363806
2,3, 1, 3, 0, 6, 0.00,60.00,Tuesday
9,1465086484.1385289
45,269139926.16821607
457,717706469.7819098
739,1470902021.5109919
763,15723211.241184565
924,908684427.1762993
949,620415050.5993283
1734,11357092.802549024
1891,1021171286.2705718
1967,0.0
2035,78487849.33427838
2063,221742000.0
2088,175999648.3516483
2125,0.0
2163,0.0
2192,1455178810.269807
2217,0.0
2242,0.0
2293,2010590.502476193
2,3, 1, 3, 0, 7, 0.00,60.00,Tuesday
9,1700804446.8444424
45,269139926.16821607
457,717706469.7819098
739,7443176576.997258
763,15714690.25620357
924,3726357768.37903
949,25492040.96432915
1734,9937457.455953604
1891,5443470420.014812
1967,799.74604975991
2035,120498881.29917348
2063,221742000.0
2088,351999296.7032966
2125,0.0
2163,0.0
2192,7427461886.741054
2217,0.0
2242,0.0
2293,19717872.891846394
2,3, 1, 3, 0, 8, 0.00,60.00,Tuesday
9,2172676334.8935997
45,807419778.5046485
457,717706469.7819098
739,6823063277.048598
763,31528107.638190237
924,2622421592.9199616
949,44089872.4725045
1734,26973057.602779494
1891,5305783816.684791
1967,0.0
2035,120498881.29917348
2063,73914000.0
2088,439999120.8791207
2125,0.0
2163,0.0
2192,6791535169.410408
2217,0.0
2242,0.0
2293,13138084.428747187
2,3, 1, 3, 0, 9, 0.00,60.00,Tuesday
9,4604047065.806147
45,2422259335.513945
457,1614839557.0092962
739,4417953083.792301
763,63459759.8506159
924,1620462882.647238
949,949887139.2478296
1734,49687267.92782159
1891,3499461609.5059645
1967,0.0
2035,120498881.29917348
2063,0.0
2088,439999120.8791207
2125,0.0
2163,0.0
2192,4354493323.941685
2217,0.0
2242,0.0
2293,6450171.104612156
2,3, 1, 3, 0,10, 0.00,60.00,Tuesday
9,4471162746.373727
45,2422259335.513945
457,1614839557.0092962
739,4113388958.8669087
763,71488242.7793758
924,1333967291.2170907
949,1122079146.2821885
1734,53946179.49897803
1891,3113383911.8028814
1967,0.0
2035,120498881.29917348
2063,0.0
2088,307999384.6153846
2125,0.0
2163,0.0
2192,4041900716.0875327
2217,0.0
2242,0.0
2293,5565587.935928648
2,3, 1, 3, 0,11, 0.00,60.00,Tuesday
9,4294380886.3432219
45,2422259335.513945
457,1614839557.0092962
739,3627102722.780309
763,63567753.85456803
924,1126058364.0944169
949,1257967068.1914614
1734,55365726.46063489
1891,2746069136.4627397
1967,0.0
2035,120498881.29917348
2063,0.0
2088,131999736.26373624
2125,0.0
2163,0.0
2192,3563534968.9257409
2217,0.0
2242,0.0
2293,4783376.25707192
2,3, 1, 3, 0,12, 0.00,60.00,Tuesday
9,4293734730.211477
45,2422259335.513945
457,1614839557.0092962
739,3226841912.6628859
763,87726563.26065889
924,975702934.9039356
949,1378804539.9718893
1734,66722669.509162377
1891,2417156646.1291449
1967,0.0
2035,120498881.29917348
2063,0.0
2088,131999736.26373624
2125,0.0
2163,0.0
2192,3139115349.402227
2217,0.0
2242,0.0
2293,4137220.1253273684
2,3, 1, 3, 0,13, 0.00,60.00,Tuesday
9,4114300065.565043
45,2422259335.513945
457,1435412939.5638197
739,3284031685.3078987
763,104158544.87697016
924,946490016.9728706
949,1258422198.837106
1734,80919290.30508985
1891,2447529042.4798958
1967,0.0
2035,120498881.29917348
2063,0.0
2088,131999736.26373624
2125,0.0
2163,0.0
2192,3179873140.4309289
2217,0.0
2242,0.0
2293,4129172.924371485
2,3, 1, 3, 0,14, 0.00,60.00,Tuesday
9,4293019074.184165
45,2422259335.513945
457,1614839557.0092962
739,2762890113.606129
763,95995993.48969975
924,778535971.2318858
949,1489612485.936345
1734,76660382.02904396
1891,2047499230.6589025
1967,0.0
2035,120498881.29917348
2063,0.0
2088,131999736.26373624
2125,0.0
2163,0.0
2192,2666894120.11643
2217,0.0
2242,0.0
2293,3421564.098014863
2,3, 1, 3, 0,15, 0.00,60.00,Tuesday
9,4292863121.5554287
45,2422259335.513945
457,1614839557.0092962
739,2654177780.2885634
763,63433787.51842277
924,739616635.5253029
949,1522864252.953276
1734,48267639.444130059
1891,1987192090.7357746
1967,0.0
2035,120498881.29917348
2063,0.0
2088,131999736.26373624
2125,0.0
2163,0.0
2192,2590743992.7701408
2217,0.0
2242,0.0
2293,3265611.4692787195
2,3, 1, 3, 0,16, 0.00,60.00,Tuesday
9,4292791382.334115
45,2422259335.513945
457,1614839557.0092962
739,2603260336.7114264
763,55477855.2903752
924,720166924.1868664
949,1552099997.9155448
1734,46848012.549354989
1891,1951644237.931723
1967,0.0
2035,120498881.29917348
2063,0.0
2088,131999736.26373624
2125,0.0
2163,0.0
2192,2547782481.421051
2217,0.0
2242,0.0
2293,3193872.2479652066
2,3, 1, 3, 0,17, 0.00,60.00,Tuesday
9,4616715843.620226
45,2422259335.513945
457,1614839557.0092962
739,2687845321.7089827
763,79650700.769007
924,774221201.6360095
949,1579045600.0469249
1734,62463876.741851169
1891,1991039390.9522253
1967,0.0
2035,120498881.29917348
2063,147828000.0
2088,307999384.6153846
2125,0.0
2163,0.0
2192,2608194620.9399759
2217,0.0
2242,0.0
2293,3290685.182428225
2,3, 1, 3, 0,18, 0.00,60.00,Tuesday
9,4105186680.189603
45,1883979483.1775125
457,1435412939.5638197
739,2865627105.4720575
763,47408255.92156436
924,884956758.555957
949,1518107029.8307605
1734,36910556.88284787
1891,2146448697.2370868
1967,0.0
2035,120498881.29917348
2063,221742000.0
2088,439999120.8791207
2125,0.0
2163,0.0
2192,2818218849.5504925
2217,0.0
2242,0.0
2293,3554255.2699775046
2,3, 1, 3, 0,19, 0.00,60.00,Tuesday
9,3208667789.4390494
45,1345699630.8410807
457,1076559704.672864
739,3311311865.6032726
763,39431136.82120634
924,1022893685.064951
949,1304114728.8161925
1734,29812326.921027665
1891,2491391002.330532
1967,0.0
2035,120498881.29917348
2063,221742000.0
2088,439999120.8791207
2125,0.0
2163,0.0
2192,3271880728.782066
2217,0.0
2242,0.0
2293,4168451.7468104416
2,3, 1, 3, 0,20, 0.00,60.00,Tuesday
9,3120824419.6036865
45,1345699630.8410807
457,1076559704.672864
739,3405010355.434872
763,23621533.80753436
924,1042682009.4448717
949,1237010535.8588799
1734,21294538.50397936
1891,2584993682.4996645
1967,0.0
2035,120498881.29917348
2063,221742000.0
2088,351999296.7032966
2125,0.0
2163,0.0
2192,3381388821.6273376
2217,0.0
2242,0.0
2293,4324906.087271269
2,3, 1, 3, 0,21, 0.00,60.00,Tuesday
9,2404076175.898588
45,807419778.5046485
457,897133087.2273873
739,4053590926.5993106
763,31499958.653666956
924,1175059315.8215702
949,904931074.4329215
1734,24133809.067623479
1891,3048178790.944825
1967,0.0
2035,120498881.29917348
2063,221742000.0
2088,351999296.7032966
2125,0.0
2163,0.0
2192,4022090967.945644
2217,0.0
2242,0.0
2293,5283132.164083551
2,3, 1, 3, 0,22, 0.00,60.00,Tuesday
9,2316303158.7680509
45,807419778.5046485
457,897133087.2273873
739,4146243026.0937268
763,15721404.086544384
924,1218581486.4286402
949,847384940.3114405
1734,11357091.920066527
1891,3151500890.581301
1967,0.0
2035,120498881.29917348
2063,221742000.0
2088,263999472.52747248
2125,0.0
2163,0.0
2192,4130521622.007182
2217,0.0
2242,0.0
2293,5509939.209369953
2,3, 1, 3, 0,23, 0.00,60.00,Tuesday
9,1388622270.1488357
45,269139926.16821607
457,717706469.7819098
739,119091422.97232916
763,15700234.548973207
924,79594973.79983199
949,33294877.37029273
1734,7098184.001902194
1891,44148333.327565778
1967,0.0
2035,3882983.0856500335
2063,221742000.0
2088,175999648.3516483
2125,0.0
2163,0.0
2192,103391188.42335594
2217,0.0
2242,0.0
2293,151242.76141159738
2,3, 1, 3, 0,24, 0.00,60.00,Tuesday
9,1217223754.9376918
45,134569963.08410803
457,717706469.7819098
739,481268098.0595287
763,7886569.176997254
924,300373356.7166852
949,588574115.1525142
1734,7098184.026784564
1891,370832429.47645679
1967,0.0
2035,54520513.23006592
2063,221742000.0
2088,87999824.17582415
2125,0.0
2163,0.0
2192,473381528.8825315
2217,0.0
2242,0.0
2293,684984.6657837133
2,4, 1, 4, 0, 1, 0.00,60.00,Wednesday
9,1191311064.460775
45,134569963.08410803
457,717706469.7819098
739,807773562.8934484
763,7886624.764288511
924,496713899.10139116
949,732885121.3231553
1734,7112610.363398229
1891,616304476.9275241
1967,0.0
2035,72176286.56200123
2063,221742000.0
2088,43999912.087912078
2125,0.0
2163,0.0
2192,799886938.1291599
2217,0.0
2242,0.0
2293,1116432.9448434925
2,4, 1, 4, 0, 2, 0.00,60.00,Wednesday
9,1209063018.6935998
45,134569963.08410803
457,717706469.7819098
739,1084190026.591881
763,7886664.085738213