Program Version,EnergyPlus, Version 9.2.0-921312fa1d, YMD=2020.12.22 18:00
1,5,Environment Title[],Latitude[deg],Longitude[deg],Time Zone[],Elevation[m]
2,8,Day of Simulation[],Month[],Day of Month[],DST Indicator[1=yes 0=no],Hour[],StartMinute[],EndMinute[],DayType
3,5,Cumulative Day of Simulation[],Month[],Day of Month[],DST Indicator[1=yes 0=no],DayType  ! When Daily Meters Requested
4,2,Cumulative Days of Simulation[],Month[]  ! When Monthly Meters Requested
5,1,Cumulative Days of Simulation[] ! When Run Period Meters Requested
6,1,Calendar Year of Simulation[] ! When Annual Meters Requested
9,1,Electricity:Facility [J] !Hourly
1153,1,Heating:Electricity [J] !Hourly
1216,1,Cooling:Electricity [J] !Hourly
45,1,InteriorLights:Electricity [J] !Hourly
1020,1,ExteriorLights:Electricity [J] !Hourly
307,1,InteriorEquipment:Electricity [J] !Hourly
1057,1,Fans:Electricity [J] !Hourly
1116,1,Gas:Facility [J] !Hourly
1140,1,Heating:Gas [J] !Hourly
497,1,Heating:EnergyTransfer [J] !Hourly
522,1,Cooling:EnergyTransfer [J] !Hourly
1103,1,HeatingCoils:EnergyTransfer [J] !Hourly
1203,1,CoolingCoils:EnergyTransfer [J] !Hourly
End of Data Dictionary
1,RUNPERIOD 1,  41.98, -87.92,  -6.00, 201.00
2,1, 1, 1, 0, 1, 0.00,60.00,Holiday
9,81317382.51279482
45,14473678.14936
307,4853719.3248000009
497,346883470.5112757
522,0.0
1020,48596400.0
1057,13393585.03863483
1103,338108561.2192942
1116,426437930.1194813
1140,426437930.1194813
1153,0.0
1203,0.0
1216,0.0
2,1, 1, 1, 0, 2, 0.00,60.00,Holiday
9,82077523.42031832
45,14473678.14936
307,4853719.3248000009
497,366739059.0855584
522,0.0
1020,48596400.0
1057,14153725.946158324
1103,357457700.0264851
1116,450811801.033525
1140,450811801.033525
1153,0.0
1203,0.0
1216,0.0
2,1, 1, 1, 0, 3, 0.00,60.00,Holiday
9,87184183.78974663
45,14473678.14936
307,4853719.3248000009
497,499630013.88402208
522,0.0
1020,48596400.0
1057,19260386.315586624
1103,490299481.54409798
1116,618339723.7591699
1140,618339723.7591699
1153,0.0
1203,0.0
1216,0.0
2,1, 1, 1, 0, 4, 0.00,60.00,Holiday
9,82577995.22134446
45,14473678.14936
307,4853719.3248000009
497,379748845.0680982
522,0.0
1020,48596400.0
1057,14654197.747184463
1103,370100704.14070799
1116,466749255.69445946
1140,466749255.69445946
1153,0.0
1203,0.0
1216,0.0
2,1, 1, 1, 0, 5, 0.00,60.00,Holiday
9,87636655.39521298
45,14473678.14936
307,4853719.3248000009
497,511635775.4774354
522,0.0
1020,48596400.0
1057,19712857.921052964
1103,502005625.7304242
1116,633095784.7385242
1140,633095784.7385242
1153,0.0
1203,0.0
1216,0.0
2,1, 1, 1, 0, 6, 0.00,60.00,Holiday
9,82798095.31910964
45,14473678.14936
307,4853719.3248000009
497,385552496.4863253
522,0.0
1020,48596400.0
1057,14874297.844949639
1103,375731928.70923778
1116,473834188.61870107
1140,473834188.61870107
1153,0.0
1203,0.0
1216,0.0
2,1, 1, 1, 0, 7, 0.00,60.00,Holiday
9,87947051.01238024
45,14473678.14936
307,4853719.3248000009
497,519804137.3506485
522,0.0
1020,48596400.0
1057,20023253.538220254
1103,509909008.0139861
1116,643040933.288629
1140,643040933.288629
1153,0.0
1203,0.0
1216,0.0
2,1, 1, 1, 0, 8, 0.00,60.00,Holiday
9,50413127.46768691
45,14473678.14936
307,4853719.3248000009
497,385862684.8414237
522,0.0
1020,16198800.0
1057,14886929.99352692
1103,376014261.8738489
1116,474185665.3984165
1140,474185665.3984165
1153,0.0
1203,0.0
1216,0.0
2,1, 1, 1, 0, 9, 0.00,60.00,Holiday
9,96270907.84095733
45,28947356.29872
307,9707438.649600001
497,740740268.2655217
522,0.0
1020,0.0
1057,57616112.89263735
1103,1102497197.240385
1116,1389824125.6463528
1140,1389824125.6463528
1153,0.0
1203,0.0
1216,0.0
2,1, 1, 1, 0,10, 0.00,60.00,Holiday
9,96270907.84095733
45,28947356.29872
307,9707438.649600001
497,485063398.4339588
522,0.0
1020,0.0
1057,57616112.89263735
1103,815131684.4973289
1116,1027697156.2783754
1140,1027697156.2783754
1153,0.0
1203,0.0
1216,0.0
2,1, 1, 1, 0,11, 0.00,60.00,Holiday
9,192820415.3867174
45,115789425.19488
307,19414877.299200003
497,354429358.8678249
522,0.0
1020,0.0
1057,57616112.89263734
1103,658762724.9504982
1116,830563140.0702067
1140,830563140.0702067
1153,0.0
1203,0.0
1216,0.0
2,1, 1, 1, 0,12, 0.00,60.00,Holiday
9,192820415.3867174
45,115789425.19488
307,19414877.299200003
497,290548839.4479246
522,0.0
1020,0.0
1057,57616112.89263735
1103,572011751.1006537
1116,721183529.1160543
1140,721183529.1160543
1153,0.0
1203,0.0
1216,0.0
2,1, 1, 1, 0,13, 0.00,60.00,Holiday
9,257186753.75055746
45,173684137.79232
307,25886503.0656
497,225849314.95686937
522,0.0
1020,0.0
1057,57616112.89263734
1103,489123351.65953829
1116,616633528.5277168
1140,616633528.5277168
1153,0.0
1203,0.0
1216,0.0
2,1, 1, 1, 0,14, 0.00,60.00,Holiday
9,257186753.75055746
45,173684137.79232
307,25886503.0656
497,201737275.4678029
522,0.0
1020,0.0
1057,57616112.89263735
1103,450165238.79681476
1116,567491564.7535571
1140,567491564.7535571
1153,0.0
1203,0.0
1216,0.0
2,1, 1, 1, 0,15, 0.00,60.00,Holiday
9,257186753.75055746
45,173684137.79232
307,25886503.0656
497,189227662.83999304
522,0.0
1020,0.0
1057,57616112.89263734
1103,431496836.7391324
1116,543941097.9242047
1140,543941097.9242047
1153,0.0
1203,0.0
1216,0.0
2,1, 1, 1, 0,16, 0.00,60.00,Holiday
9,257186753.75055746
45,173684137.79232
307,25886503.0656
497,187156205.13161589
522,0.0
1020,0.0
1057,57616112.89263735
1103,429507676.46475788
1116,541424165.5865656
1140,541424165.5865656
1153,0.0
1203,0.0
1216,0.0
2,1, 1, 1, 0,17, 0.00,60.00,Holiday
9,289584353.7505575
45,173684137.79232
307,25886503.0656
497,189425970.20374353
522,0.0
1020,32397600.0
1057,57616112.89263735
1103,431813039.6734406
1116,544328781.5303526
1140,544328781.5303526
1153,0.0
1203,0.0
1216,0.0
2,1, 1, 1, 0,18, 0.00,60.00,Holiday
9,241416815.3867175
45,115789425.19488
307,19414877.299200003
497,425698892.628199
522,0.0
1020,48596400.0
1057,57616112.89263734
1103,672813570.4547657
1116,848257143.6680323
1140,848257143.6680323
1153,0.0
1203,0.0
1216,0.0
2,1, 1, 1, 0,19, 0.00,60.00,Holiday
9,177050477.02287738
45,57894712.59744
307,12943251.5328
497,475898726.68751999
522,0.0
1020,48596400.0
1057,57616112.89263734
1103,730378357.4904937
1116,920865696.6906319
1140,920865696.6906319
1153,0.0
1203,0.0
1216,0.0
2,1, 1, 1, 0,20, 0.00,60.00,Holiday
9,70161265.2505781
45,14473678.14936
307,4853719.3248000009
497,58579913.36694607
522,0.0
1020,48596400.0
1057,2237467.7764181236
1103,56877899.870293859
1116,71945301.19947118
1140,71945301.19947118
1153,0.0
1203,0.0
1216,0.0
2,1, 1, 1, 0,21, 0.00,60.00,Holiday
9,73282662.89497045
45,14473678.14936
307,4853719.3248000009
497,139498383.86837728
522,0.0
1020,48596400.0
1057,5358865.420810455
1103,134991653.57384474
1116,170477887.81013827
1140,170477887.81013827
1153,0.0
1203,0.0
1216,0.0
2,1, 1, 1, 0,22, 0.00,60.00,Holiday
9,75069711.2837917
45,14473678.14936
307,4853719.3248000009
497,185305900.06180836
522,0.0
1020,48596400.0
1057,7145913.809631715
1103,180207723.6658055
1116,227253654.075559
1140,227253654.075559
1153,0.0
1203,0.0
1216,0.0
2,1, 1, 1, 0,23, 0.00,60.00,Holiday
9,75143429.33616184
45,14473678.14936
307,4853719.3248000009
497,187659919.48727919
522,0.0
1020,48596400.0
1057,7219631.862001834
1103,181974282.30203057
1116,229689037.50847448
1140,229689037.50847448
1153,0.0
1203,0.0
1216,0.0
2,1, 1, 1, 0,24, 0.00,60.00,Holiday
9,76632104.73082991
45,14473678.14936
307,4853719.3248000009
497,225662086.98591597
522,0.0
1020,48596400.0
1057,8708307.256669898
1103,219924300.3196682
1116,277273784.0165226
1140,277273784.0165226
1153,0.0
1203,0.0
1216,0.0
2,2, 1, 2, 0, 1, 0.00,60.00,Tuesday
9,78558617.70128171
45,14473678.14936
307,6471625.7664
497,234172305.4569637
522,0.0
1020,48596400.0
1057,9016913.78552171
1103,227464737.64955194
1116,287080393.53197059
1140,287080393.53197059
1153,0.0
1203,0.0
1216,0.0
2,2, 1, 2, 0, 2, 0.00,60.00,Tuesday
9,80244994.55382699
45,14473678.14936
307,6471625.7664
497,277060067.56839558
522,0.0
1020,48596400.0
1057,10703290.638066985
1103,270854241.8796884
1116,341441070.72689017
1140,341441070.72689017
1153,0.0
1203,0.0
1216,0.0
2,2, 1, 2, 0, 3, 0.00,60.00,Tuesday
9,79358095.23631943
45,14473678.14936
307,6471625.7664
497,254795848.59168009
522,0.0
1020,48596400.0
1057,9816391.32055942
1103,247810587.1335566
1116,312729173.30675706
1140,312729173.30675706
1153,0.0
1203,0.0
1216,0.0
2,2, 1, 2, 0, 4, 0.00,60.00,Tuesday
9,80665120.91603145
45,14473678.14936
307,6471625.7664
497,287872103.9998899
522,0.0
1020,48596400.0
1057,11123417.000271446
1103,281615091.3707731
1116,354998290.5993245
1140,354998290.5993245
1153,0.0
1203,0.0
1216,0.0
2,2, 1, 2, 0, 5, 0.00,60.00,Tuesday
9,78996873.62400872
45,14473678.14936
307,6471625.7664
497,245409879.28494088
522,0.0
1020,48596400.0
1057,9455169.708248713
1103,238692467.13802944
1116,301197784.73001429
1140,301197784.73001429
1153,0.0
1203,0.0
1216,0.0
2,2, 1, 2, 0, 6, 0.00,60.00,Tuesday
9,79620580.61208378
45,14473678.14936
307,6471625.7664
497,260960586.05334766
522,0.0
1020,48596400.0
1057,10078876.696323779
1103,254964059.6195221
1116,321399351.9726293
1140,321399351.9726293
1153,0.0
1203,0.0
1216,0.0
2,2, 1, 2, 0, 7, 0.00,60.00,Tuesday
9,127157816.80839738
45,14473678.14936
307,6471625.7664
497,580545533.5667871
522,0.0
1020,48596400.0
1057,57616112.89263735
1103,826325401.5329509
1116,1041614692.6034602
1140,1041614692.6034602
1153,0.0
1203,0.0
1216,0.0
2,2, 1, 2, 0, 8, 0.00,60.00,Tuesday
9,144652877.02287738
45,57894712.59744
307,12943251.5328
497,410808727.93466016
522,0.0
1020,16198800.0
1057,57616112.89263734
1103,646482941.2472046
1116,814968925.8981847
1140,814968925.8981847
1153,0.0
1203,0.0
1216,0.0
2,2, 1, 2, 0, 9, 0.00,60.00,Tuesday
9,225003584.56863735
45,144736781.4936
307,22650690.1824
497,318900187.62144038
522,0.0
1020,0.0
1057,57616112.89263734
1103,549860306.090266
1116,693150353.0555843
1140,693150353.0555843
1153,0.0
1203,0.0
1216,0.0
2,2, 1, 2, 0,10, 0.00,60.00,Tuesday
9,347264635.52991738
45,260526206.68848003
307,29122315.948799999
497,208653836.38872383
522,0.0
1020,0.0
1057,57616112.89263734
1103,431495177.1847445
1116,543881653.0142599
1140,543881653.0142599
1153,0.0
1203,0.0
1216,0.0
2,2, 1, 2, 0,11, 0.00,60.00,Tuesday
9,347264635.52991738
45,260526206.68848003
307,29122315.948799999
497,159869590.2096624
522,0.0
1020,0.0
1057,57616112.89263734
1103,370603447.5848594
1116,467112484.7233594
1140,467112484.7233594
1153,0.0
1203,0.0
1216,0.0
2,2, 1, 2, 0,12, 0.00,60.00,Tuesday
9,347264635.52991738
45,260526206.68848003
307,29122315.948799999
497,115102184.97983873
522,0.0
1020,0.0
1057,57616112.89263734
1103,319639192.82350137
1116,402874476.40400776
1140,402874476.40400776
1153,0.0
1203,0.0
1216,0.0
2,2, 1, 2, 0,13, 0.00,60.00,Tuesday
9,347264635.52991738
45,260526206.68848003
307,29122315.948799999
497,94532852.67576471
522,0.0
1020,0.0
1057,57616112.89263735
1103,299128615.72230139
1116,377031584.5108192
1140,377031584.5108192
1153,0.0
1203,0.0
1216,0.0
2,2, 1, 2, 0,14, 0.00,60.00,Tuesday
9,347264635.52991738
45,260526206.68848003
307,29122315.948799999
497,89164501.09345608
522,0.0
1020,0.0
1057,57616112.89263735
1103,307472315.2333266
1116,387550194.3286751
1140,387550194.3286751
1153,0.0
1203,0.0
1216,0.0
2,2, 1, 2, 0,15, 0.00,60.00,Tuesday
9,347264635.52991738
45,260526206.68848003
307,29122315.948799999
497,91352027.85172662
522,0.0
1020,0.0
1057,57616112.89263735
1103,324168935.0366149
1116,408595255.0352954
1140,408595255.0352954
1153,0.0
1203,0.0
1216,0.0
2,2, 1, 2, 0,16, 0.00,60.00,Tuesday
9,347264635.52991738
45,260526206.68848003
307,29122315.948799999
497,79007054.51214895
522,1326767.2704113778
1020,0.0
1057,57616112.89263735
1103,304391436.28747478
1116,383656477.99502077
1140,383656477.99502077
1153,0.0
1203,0.0
1216,0.0
2,2, 1, 2, 0,17, 0.00,60.00,Tuesday
9,379662235.52991738
45,260526206.68848003
307,29122315.948799999
497,83412176.43988228
522,1168513.7993152799
1020,32397600.0
1057,57616112.89263735
1103,302198378.1902647
1116,380886683.6520649
1140,380886683.6520649
1153,0.0
1203,0.0
1216,0.0
2,2, 1, 2, 0,18, 0.00,60.00,Tuesday
9,395861035.52991738
45,260526206.68848003
307,29122315.948799999
497,106772460.44757514
522,0.0
1020,48596400.0
1057,57616112.89263734
1103,336268540.1831546
1116,423837664.49759206
1140,423837664.49759206
1153,0.0
1203,0.0
1216,0.0
2,2, 1, 2, 0,19, 0.00,60.00,Tuesday
9,305783153.7505575
45,173684137.79232
307,25886503.0656
497,131949381.0433996
522,0.0
1020,48596400.0
1057,57616112.89263735
1103,358728141.63642886
1116,452182290.0693739
1140,452182290.0693739
1153,0.0
1203,0.0
1216,0.0
2,2, 1, 2, 0,20, 0.00,60.00,Tuesday
9,305783153.7505575
45,173684137.79232
307,25886503.0656
497,149942772.10514004
522,0.0
1020,48596400.0
1057,57616112.89263734
1103,365958675.0926254
1116,461295748.7191934
1140,461295748.7191934
1153,0.0
1203,0.0
1216,0.0
2,2, 1, 2, 0,21, 0.00,60.00,Tuesday
9,273599984.56863746
45,144736781.4936
307,22650690.1824
497,158117340.43913067
522,0.0
1020,48596400.0
1057,57616112.89263734
1103,366594854.89614716
1116,462106934.1741421
1140,462106934.1741421
1153,0.0
1203,0.0
1216,0.0
2,2, 1, 2, 0,22, 0.00,60.00,Tuesday
9,119627476.69820468
45,57894712.59744
307,12943251.5328
497,5129078.056219927
522,0.0
1020,48596400.0
1057,193112.56796467148
1103,4955395.285420665
1116,6194244.106775831
1140,6194244.106775831
1153,0.0
1203,0.0
1216,0.0
2,2, 1, 2, 0,23, 0.00,60.00,Tuesday
9,71278211.27235902
45,14473678.14936
307,6471625.7664
497,45682278.664866048
522,0.0
1020,48596400.0
1057,1736507.3565990078
1103,44349782.30917326
1116,56078331.469181228
1140,56078331.469181228
1153,0.0
1203,0.0
1216,0.0
2,2, 1, 2, 0,24, 0.00,60.00,Tuesday
9,73732455.67251899
45,14473678.14936
307,6471625.7664
497,109366482.69414036
522,0.0
1020,48596400.0
1057,4190751.756758998
1103,105749205.8188644
1116,133502678.21561116
1140,133502678.21561116
1153,0.0
1203,0.0
1216,0.0
2,3, 1, 3, 0, 1, 0.00,60.00,Wednesday
9,74905216.7070367
45,14473678.14936
307,6471625.7664
497,139545500.32959653
522,0.0
1020,48596400.0
1057,5363512.791276718
1103,135479785.89962328
1116,170897176.1335144
1140,170897176.1335144
1153,0.0
1203,0.0
1216,0.0
2,3, 1, 3, 0, 2, 0.00,60.00,Wednesday
9,75384454.50145853
45,14473678.14936
307,6471625.7664
497,152158259.26228518
522,0.0
1020,48596400.0
1057,5842750.585698534
1103,147305401.19475369
1116,185880658.01646907
1140,185880658.01646907
1153,0.0
1203,0.0
1216,0.0
2,3, 1, 3, 0, 3, 0.00,60.00,Wednesday
9,75916760.66518614
45,14473678.14936
307,6471625.7664
497,165712345.31066207
522,0.0
1020,48596400.0
1057,6375056.749426143
1103,161146537.7473667
1116,203229583.2375524
1140,203229583.2375524
1153,0.0
1203,0.0
1216,0.0
2,3, 1, 3, 0, 4, 0.00,60.00,Wednesday
9,76080712.78566639
45,14473678.14936
307,6471625.7664
497,170181888.17943538
522,0.0
1020,48596400.0
1057,6539008.869906386
1103,164867440.6727115
1116,208020640.00050605
1140,208020640.00050605
1153,0.0
1203,0.0
1216,0.0
2,3, 1, 3, 0, 5, 0.00,60.00,Wednesday
9,77280733.08642657
45,14473678.14936
307,6471625.7664
497,200969229.57003645
522,0.0
1020,48596400.0
1057,7739029.17066657
1103,195751104.47837246
1116,246847021.41220597
1140,246847021.41220597
1153,0.0
1203,0.0
1216,0.0
2,3, 1, 3, 0, 6, 0.00,60.00,Wednesday
9,77974388.99576894
45,14473678.14936
307,6471625.7664
497,219114464.47559405
522,0.0
1020,48596400.0
1057,8432685.080008934
1103,212662292.78442336
1116,268307473.43167795
1140,268307473.43167795
1153,0.0
1203,0.0
1216,0.0
2,3, 1, 3, 0, 7, 0.00,60.00,Wednesday
9,127157816.80839738
45,14473678.14936
307,6471625.7664
497,570397912.1906923
522,0.0
1020,48596400.0
1057,57616112.89263735
1103,844038200.921598
1116,1063848324.9654673
1140,1063848324.9654673
1153,0.0
1203,0.0
1216,0.0
2,3, 1, 3, 0, 8, 0.00,60.00,Wednesday
9,144652877.02287738
45,57894712.59744
307,12943251.5328
497,411213726.9078567
522,0.0
1020,16198800.0
1057,57616112.89263735
1103,683501658.0708095
1116,861647271.2910638
1140,861647271.2910638
1153,0.0
1203,0.0
1216,0.0
2,3, 1, 3, 0, 9, 0.00,60.00,Wednesday
9,225003584.56863735
45,144736781.4936
307,22650690.1824
497,336492658.41502508
522,0.0
1020,0.0
1057,57616112.89263735
1103,617436960.2132441
1116,778361955.0621874
1140,778361955.0621874
1153,0.0
1203,0.0
1216,0.0
2,3, 1, 3, 0,10, 0.00,60.00,Wednesday
9,347264635.52991738
45,260526206.68848003
307,29122315.948799999
497,243324874.37781263
522,0.0
1020,0.0
1057,57616112.89263734
1103,530449021.51099529
1116,668658003.4786382
1140,668658003.4786382
1153,0.0
1203,0.0
1216,0.0
2,3, 1, 3, 0,11, 0.00,60.00,Wednesday
9,347264635.52991738
45,260526206.68848003
307,29122315.948799999
497,204685974.0779915
522,0.0
1020,0.0
1057,57616112.89263735
1103,487854788.49642577
1116,614960842.4556813
1140,614960842.4556813
1153,0.0
1203,0.0
1216,0.0
2,3, 1, 3, 0,12, 0.00,60.00,Wednesday
9,347264635.52991738
45,260526206.68848003
307,29122315.948799999
497,163522504.70065189
522,0.0
1020,0.0
1057,57616112.89263735
1103,439164828.67358627
1116,553587471.7702806
1140,553587471.7702806
1153,0.0
1203,0.0
1216,0.0
2,3, 1, 3, 0,13, 0.00,60.00,Wednesday
9,347264635.52991738
45,260526206.68848003
307,29122315.948799999
497,142506946.61602126
522,0.0
1020,0.0
1057,57616112.89263735
1103,410819101.00918057
1116,517853636.61277487
1140,517853636.61277487
1153,0.0
1203,0.0
1216,0.0
2,3, 1, 3, 0,14, 0.00,60.00,Wednesday
9,347264635.52991738
45,260526206.68848003
307,29122315.948799999
497,128797964.67336658
522,0.0
1020,0.0
1057,57616112.89263735
1103,394276703.8012242
1116,496993248.6654802
1140,496993248.6654802
1153,0.0
1203,0.0
1216,0.0
2,3, 1, 3, 0,15, 0.00,60.00,Wednesday
9,347264635.52991738
45,260526206.68848003
307,29122315.948799999
497,121660654.56647712
522,0.0
1020,0.0
1057,57616112.89263735
1103,387139856.284148
1116,487990418.1381848
1140,487990418.1381848
1153,0.0
1203,0.0
1216,0.0
2,3, 1, 3, 0,16, 0.00,60.00,Wednesday
9,347264635.52991738
45,260526206.68848003
307,29122315.948799999
497,111437042.6920813
522,0.0
1020,0.0
1057,57616112.89263735
1103,376917034.24621316
1116,475096236.8904647
1140,475096236.8904647
1153,0.0
1203,0.0
1216,0.0
2,3, 1, 3, 0,17, 0.00,60.00,Wednesday
9,379662235.52991738
45,260526206.68848003
307,29122315.948799999
497,120927631.10125689
522,0.0
1020,32397600.0
1057,57616112.89263735
1103,386449243.2886181
1116,487106382.07498928
1140,487106382.07498928
1153,0.0
1203,0.0
1216,0.0
2,3, 1, 3, 0,18, 0.00,60.00,Wednesday
9,395861035.52991738
45,260526206.68848003
307,29122315.948799999
497,140806968.55655248
522,0.0
1020,48596400.0
1057,57616112.89263734
1103,406312429.95865437
1116,512144317.96198377
1140,512144317.96198377
1153,0.0
1203,0.0
1216,0.0
2,3, 1, 3, 0,19, 0.00,60.00,Wednesday
9,305783153.7505575
45,173684137.79232
307,25886503.0656
497,170415361.7130193
522,0.0
1020,48596400.0
1057,57616112.89263735
1103,435889120.7329637
1116,549463965.2314919
1140,549463965.2314919
1153,0.0
1203,0.0
1216,0.0
2,3, 1, 3, 0,20, 0.00,60.00,Wednesday
9,305783153.7505575
45,173684137.79232
307,25886503.0656
497,197959470.94061516
522,0.0
1020,48596400.0
1057,57616112.89263735
1103,463482345.7925671
1116,584252562.3724842
1140,584252562.3724842
1153,0.0
1203,0.0
1216,0.0
2,3, 1, 3, 0,21, 0.00,60.00,Wednesday
9,273599984.56863746
45,144736781.4936
307,22650690.1824
497,214040191.96484543
522,0.0
1020,48596400.0
1057,57616112.89263734
1103,479644931.581459
1116,604644910.8141401
1140,604644910.8141401
1153,0.0
1203,0.0
1216,0.0
2,3, 1, 3, 0,22, 0.00,60.00,Wednesday
9,120898508.9849734
45,57894712.59744
307,12943251.5328
497,38585196.59854978
522,0.0
1020,48596400.0
1057,1464144.8547333945
1103,37462054.670206848
1116,47409343.82930422
1140,47409343.82930422
1153,0.0
1203,0.0
1216,0.0
2,3, 1, 3, 0,23, 0.00,60.00,Wednesday
9,74979169.38136305
45,14473678.14936
307,6471625.7664
497,141408858.32548506
522,0.0
1020,48596400.0
1057,5437465.465603057
1103,137038631.39840434
1116,172887372.0746808
1140,172887372.0746808
1153,0.0
1203,0.0
1216,0.0
2,3, 1, 3, 0,24, 0.00,60.00,Wednesday
9,76591022.12676424
45,14473678.14936
307,6471625.7664
497,183202142.78228433
522,0.0
1020,48596400.0
1057,7049318.211004247
1103,177881735.7521013
1116,224525085.95282219
1140,224525085.95282219
1153,0.0
1203,0.0
1216,0.0
2,4, 1, 4, 0, 1, 0.00,60.00,Thursday
9,77619760.33114586
45,14473678.14936
307,6471625.7664
497,209570256.54726596
522,0.0
1020,48596400.0
1057,8078056.415385854
1103,203790752.57704298
1116,256948774.55810947
1140,256948774.55810947
1153,0.0
1203,0.0
1216,0.0
2,4, 1, 4, 0, 2, 0.00,60.00,Thursday
9,78081739.23279053
45,14473678.14936
307,6471625.7664
497,221700176.04580833
522,0.0
1020,48596400.0
1057,8540035.317030542
1103,215655980.31860749
1116,272145494.29559358
1140,272145494.29559358
1153,0.0
1203,0.0
1216,0.0
2,4, 1, 4, 0, 3, 0.00,60.00,Thursday
9,78691932.85300237
45,14473678.14936
307,6471625.7664
497,237242391.82941646
522,0.0
1020,48596400.0
1057,9150228.937242382
1103,231012299.89050565
1116,291238919.98885247
1140,291238919.98885247
1153,0.0
1203,0.0
1216,0.0
2,4, 1, 4, 0, 4, 0.00,60.00,Thursday
9,79105788.32496266
45,14473678.14936
307,6471625.7664
497,248148412.86013479
522,0.0
1020,48596400.0
1057,9564084.409202666
1103,241687706.30543179
1116,304973117.5154598
1140,304973117.5154598
1153,0.0
1203,0.0
1216,0.0
2,4, 1, 4, 0, 5, 0.00,60.00,Thursday
9,79716273.43441479
45,14473678.14936
307,6471625.7664
497,263704923.80376829
522,0.0
1020,48596400.0
1057,10174569.518654803
1103,257164771.9997757
1116,324196394.26453456
1140,324196394.26453456
1153,0.0
1203,0.0
1216,0.0
2,4, 1, 4, 0, 6, 0.00,60.00,Thursday
9,79817972.35493468
45,14473678.14936
307,6471625.7664
497,266532211.02214707
522,0.0
1020,48596400.0
1057,10276268.439174679
1103,259880245.51600457
1116,327911866.23929467
1140,327911866.23929467
1153,0.0
1203,0.0
1216,0.0
2,4, 1, 4, 0, 7, 0.00,60.00,Thursday
9,127157816.80839738
45,14473678.14936
307,6471625.7664
497,588693665.1108418
522,0.0
1020,48596400.0
1057,57616112.89263735
1103,864559476.4808329
1116,1089742664.851426
1140,1089742664.851426
1153,0.0
1203,0.0
1216,0.0
2,4, 1, 4, 0, 8, 0.00,60.00,Thursday
9,144652877.02287738
45,57894712.59744
307,12943251.5328
497,419086138.13076886
522,0.0
1020,16198800.0
1057,57616112.89263734
1103,684812674.8766974
1116,863288811.5012163
1140,863288811.5012163
1153,0.0
1203,0.0
1216,0.0
2,4, 1, 4, 0, 9, 0.00,60.00,Thursday
9,225003584.56863735
45,144736781.4936
307,22650690.1824
497,329515904.0494745
522,0.0
1020,0.0
1057,57616112.89263735
1103,590489905.2113875
1116,744378124.9992497
1140,744378124.9992497
1153,0.0
1203,0.0
1216,0.0
2,4, 1, 4, 0,10, 0.00,60.00,Thursday
9,347264635.52991738
45,260526206.68848003
307,29122315.948799999
497,223432270.86903278
522,0.0
1020,0.0
1057,57616112.89263734
1103,477043851.7843884
1116,601314100.3581816
1140,601314100.3581816
1153,0.0
1203,0.0
1216,0.0
2,4, 1, 4, 0,11, 0.00,60.00,Thursday
9,347264635.52991738
45,260526206.68848003
307,29122315.948799999
497,182854279.93084563
522,0.0
1020,0.0
1057,57616112.89263735
1103,433676774.5317186
1116,546640811.1982868
1140,546640811.1982868
1153,0.0
1203,0.0
1216,0.0
2,4, 1, 4, 0,12, 0.00,60.00,Thursday
9,347264635.52991738
45,260526206.68848003
307,29122315.948799999
497,141545873.36874409
522,0.0
1020,0.0
1057,57616112.89263735
1103,387698340.47922345
1116,488689777.2323448
1140,488689777.2323448
1153,0.0
1203,0.0
1216,0.0
2,4, 1, 4, 0,13, 0.00,60.00,Thursday
9,347264635.52991738
45,260526206.68848003
307,29122315.948799999
497,118728386.75650922
522,0.0
1020,0.0
1057,57616112.89263735
1103,357548613.7678921
1116,450686078.7683559
1140,450686078.7683559
1153,0.0
1203,0.0
1216,0.0
2,4, 1, 4, 0,14, 0.00,60.00,Thursday
9,347264635.52991738
45,260526206.68848003
307,29122315.948799999
497,104421539.08378324
522,0.0
1020,0.0
1057,57616112.89263735
1103,340407327.85883566
1116,429072247.74098649
1140,429072247.74098649
1153,0.0
1203,0.0
1216,0.0
2,4, 1, 4, 0,15, 0.00,60.00,Thursday
9,347264635.52991738
45,260526206.68848003
307,29122315.948799999
497,99394018.09372105
522,0.0
1020,0.0
1057,57616112.89263734
1103,339387056.95477136
1116,427781122.2244048
1140,427781122.2244048
1153,0.0
1203,0.0
1216,0.0
2,4, 1, 4, 0,16, 0.00,60.00,Thursday
9,347264635.52991738
45,260526206.68848003
307,29122315.948799999
497,92155961.74847564
522,319093.78753015989
1020,0.0
1057,57616112.89263734
1103,334651462.9333267
1116,421806533.7239515
1140,421806533.7239515
1153,0.0
1203,0.0
1216,0.0
2,4, 1, 4, 0,17, 0.00,60.00,Thursday
9,379662235.52991738
45,260526206.68848003
307,29122315.948799999
497,111899186.18401583
522,0.0
1020,32397600.0
1057,57616112.89263734
1103,367962120.7497004
1116,463799729.386762
1140,463799729.386762
1153,0.0
1203,0.0
1216,0.0
2,4, 1, 4, 0,18, 0.00,60.00,Thursday
9,395861035.52991738
45,260526206.68848003
307,29122315.948799999
497,146650404.150582
522,0.0
1020,48596400.0
1057,57616112.89263735
1103,420828902.4523748
1116,530450851.2037192
1140,530450851.2037192
1153,0.0
1203,0.0
1216,0.0
2,4, 1, 4, 0,19, 0.00,60.00,Thursday
9,305783153.7505575
45,173684137.79232
307,25886503.0656
497,189529525.82548163
522,0.0
1020,48596400.0
1057,57616112.89263735
1103,478496717.5236176
1116,603187902.6859193
1140,603187902.6859193
1153,0.0
1203,0.0
1216,0.0
2,4, 1, 4, 0,20, 0.00,60.00,Thursday
9,305783153.7505575
45,173684137.79232
307,25886503.0656
497,224027684.31354717
522,0.0
1020,48596400.0
1057,57616112.89263735
1103,519166801.4078728
1116,654464237.9937389
1140,654464237.9937389
1153,0.0
1203,0.0
1216,0.0
2,4, 1, 4, 0,21, 0.00,60.00,Thursday
9,273599984.56863746
45,144736781.4936
307,22650690.1824
497,238902860.7335545
522,0.0
1020,48596400.0
1057,57616112.89263735
1103,529350704.7676192
1116,667318393.026616
1140,667318393.026616
1153,0.0
1203,0.0
1216,0.0
2,4, 1, 4, 0,22, 0.00,60.00,Thursday
9,121875315.1090805
45,57894712.59744
307,12943251.5328
497,63736698.972655568
522,0.0
1020,48596400.0
1057,2440950.978840471
1103,61783129.4674402
1116,77946343.44800392
1140,77946343.44800392
1153,0.0
1203,0.0
1216,0.0
2,4, 1, 4, 0,23, 0.00,60.00,Thursday
9,77271797.68926588
45,14473678.14936
307,6471625.7664
497,201015532.64377374
522,0.0
1020,48596400.0
1057,7730093.773505879
1103,195201277.04866768
1116,246530623.5757112
1140,246530623.5757112
1153,0.0
1203,0.0
1216,0.0
2,4, 1, 4, 0,24, 0.00,60.00,Thursday
9,79439394.22560758
45,14473678.14936
307,6471625.7664
497,255888849.6958025
522,0.0
1020,48596400.0
1057,9897690.309847584
1103,249060172.11409159
1116,313802970.0744922
1140,313802970.0744922
1153,0.0
1203,0.0
1216,0.0
2,5, 1, 5, 0, 1, 0.00,60.00,Friday
9,81377014.31701765
45,14473678.14936
307,6471625.7664
497,307017806.0647649
522,0.0
1020,48596400.0
1057,11835310.40125765
1103,299941266.20354869
1116,378710336.6891684
1140,378710336.6891684
1153,0.0
1203,0.0
1216,0.0
2,5, 1, 5, 0, 2, 0.00,60.00,Friday
9,81411843.58978604
45,14473678.14936
307,6471625.7664
497,306483227.6464303
522,0.0
1020,48596400.0
1057,11870139.674026035
1103,299087725.058154
1116,376799541.90080067
1140,376799541.90080067
1153,0.0
1203,0.0
1216,0.0
2,5, 1, 5, 0, 3, 0.00,60.00,Friday
9,82521661.45206307
45,14473678.14936
307,6471625.7664
497,336574089.84135499
522,0.0
1020,48596400.0
1057,12979957.536303087
1103,329321188.6332738
1116,415773471.1399068
1140,415773471.1399068
1153,0.0
1203,0.0
1216,0.0
2,5, 1, 5, 0, 4, 0.00,60.00,Friday
9,83230234.31038468
45,14473678.14936
307,6471625.7664
497,353301511.9140616
522,0.0
1020,48596400.0
1057,13688530.394624692
1103,345317744.1413599
1116,435006842.41239419
1140,435006842.41239419
1153,0.0
1203,0.0
1216,0.0
2,5, 1, 5, 0, 5, 0.00,60.00,Friday
9,86130001.17233955
45,14473678.14936
307,6471625.7664
497,430819963.8872568
522,0.0
1020,48596400.0
1057,16588297.25657954
1103,422110121.7091907
1116,532878307.7806903
1140,532878307.7806903
1153,0.0
1203,0.0
1216,0.0
2,5, 1, 5, 0, 6, 0.00,60.00,Friday
9,87800759.77108652
45,14473678.14936
307,6471625.7664
497,472904674.3760347
522,0.0
1020,48596400.0
1057,18259055.85532653
1103,462060523.895326
1116,582053600.2681444
1140,582053600.2681444
1153,0.0
1203,0.0
1216,0.0
2,5, 1, 5, 0, 7, 0.00,60.00,Friday
9,127157816.80839738
45,14473678.14936
307,6471625.7664
497,793863179.7767776
522,0.0
1020,48596400.0
1057,57616112.89263735
1103,1227237804.175391
1116,1547411084.570067
1140,1547411084.570067
1153,0.0
1203,0.0
1216,0.0
2,5, 1, 5, 0, 8, 0.00,60.00,Friday
9,144652877.02287738
45,57894712.59744
307,12943251.5328
497,601733155.9231768
522,0.0
1020,16198800.0
1057,57616112.89263735
1103,1022780553.7154217
1116,1289446267.2183498
1140,1289446267.2183498
1153,0.0
1203,0.0
1216,0.0
2,5, 1, 5, 0, 9, 0.00,60.00,Friday
9,225003584.56863735
45,144736781.4936
307,22650690.1824
497,487615294.14905658
522,0.0
1020,0.0
1057,57616112.89263735
1103,902540381.8374677
1116,1137875303.2019628
1140,1137875303.2019628
1153,0.0
1203,0.0
1216,0.0
2,5, 1, 5, 0,10, 0.00,60.00,Friday
9,347264635.52991738
45,260526206.68848003
307,29122315.948799999
497,344719249.375677
522,0.0
1020,0.0
1057,57616112.89263735
1103,742260443.3109824
1116,935789206.1166176
1140,935789206.1166176
1153,0.0
1203,0.0
1216,0.0
2,5, 1, 5, 0,11, 0.00,60.00,Friday
9,347264635.52991738
45,260526206.68848003
307,29122315.948799999
497,262857224.40266503
522,0.0
1020,0.0
1057,57616112.89263735
1103,629881948.4814618
1116,794111899.2025874
1140,794111899.2025874
1153,0.0
1203,0.0
1216,0.0
2,5, 1, 5, 0,12, 0.00,60.00,Friday
9,347264635.52991738
45,260526206.68848003
307,29122315.948799999
497,191065382.365165
522,0.0
1020,0.0
1057,57616112.89263735
1103,532575141.1860393
1116,671433347.7765952
1140,671433347.7765952
1153,0.0
1203,0.0
1216,0.0
2,5, 1, 5, 0,13, 0.00,60.00,Friday
9,347264635.52991738
45,260526206.68848003
307,29122315.948799999
497,153088008.14763133
522,0.0
1020,0.0
1057,57616112.89263734
1103,476970709.61149397
1116,601314878.1316424
1140,601314878.1316424
1153,0.0
1203,0.0
1216,0.0
2,5, 1, 5, 0,14, 0.00,60.00,Friday
9,347264635.52991738
45,260526206.68848003
307,29122315.948799999
497,126795276.44708058
522,0.0
1020,0.0
1057,57616112.89263734
1103,435851199.6546906
1116,549454863.5782819
1140,549454863.5782819
1153,0.0
1203,0.0
1216,0.0
2,5, 1, 5, 0,15, 0.00,60.00,Friday
9,347264635.52991738
45,260526206.68848003
307,29122315.948799999