Program Version,EnergyPlus, Version 9.2.0-921312fa1d, YMD=2020.12.22 17:51
1,5,Environment Title[],Latitude[deg],Longitude[deg],Time Zone[],Elevation[m]
2,8,Day of Simulation[],Month[],Day of Month[],DST Indicator[1=yes 0=no],Hour[],StartMinute[],EndMinute[],DayType
3,5,Cumulative Day of Simulation[],Month[],Day of Month[],DST Indicator[1=yes 0=no],DayType  ! When Daily Meters Requested
4,2,Cumulative Days of Simulation[],Month[]  ! When Monthly Meters Requested
5,1,Cumulative Days of Simulation[] ! When Run Period Meters Requested
6,1,Calendar Year of Simulation[] ! When Annual Meters Requested
9,1,Electricity:Facility [J] !Hourly
1994,1,Heating:Electricity [J] !Hourly
1915,1,Cooling:Electricity [J] !Hourly
45,1,InteriorLights:Electricity [J] !Hourly
1865,1,ExteriorLights:Electricity [J] !Hourly
432,1,InteriorEquipment:Electricity [J] !Hourly
1826,1,Fans:Electricity [J] !Hourly
2076,1,Pumps:Electricity [J] !Hourly
714,1,Gas:Facility [J] !Hourly
1981,1,Heating:Gas [J] !Hourly
738,1,WaterSystems:Gas [J] !Hourly
899,1,Heating:EnergyTransfer [J] !Hourly
924,1,Cooling:EnergyTransfer [J] !Hourly
1669,1,WaterSystems:EnergyTransfer [J] !Hourly
1956,1,HeatingCoils:EnergyTransfer [J] !Hourly
1902,1,CoolingCoils:EnergyTransfer [J] !Hourly
End of Data Dictionary
1,RUNPERIOD 1,  41.98, -87.92,  -6.00, 201.00
2,1, 1, 1, 0, 1, 0.00,60.00,Holiday
9,211242390.74647058
45,15146841.55919508
432,57896985.85326433
714,374447964.6803141
738,72000.0
899,351173307.56204816
924,0.0
1669,656357.8931907268
1826,74055778.99518758
1865,64112400.0
1902,0.0
1915,0.0
1956,292013252.4506451
1981,374375964.6803141
1994,0.0
2076,30384.33882352941
2,1, 1, 1, 0, 2, 0.00,60.00,Holiday
9,200974253.18282128
45,15146841.55919508
432,57896985.85326433
714,384231093.3309604
738,72000.0
899,347009734.3866759
924,0.0
1669,656357.8931907268
1826,63787641.43153834
1865,64112400.0
1902,0.0
1915,0.0
1956,299644092.79814919
1981,384159093.3309604
1994,0.0
2076,30384.33882352941
2,1, 1, 1, 0, 3, 0.00,60.00,Holiday
9,217727910.53416003
45,15146841.55919508
432,57896985.85326433
714,526011836.9332743
738,3970688.2775486928
899,451191800.66540637
924,0.0
1669,656357.8931907268
1826,80541298.78287705
1865,64112400.0
1902,0.0
1915,0.0
1956,407192095.9514661
1981,522041148.65572568
1994,0.0
2076,30384.338823529408
2,1, 1, 1, 0, 4, 0.00,60.00,Holiday
9,200974253.18282128
45,15146841.55919508
432,57896985.85326433
714,402950222.8033052
738,72000.0
899,360518155.2599536
924,0.0
1669,656357.8931907268
1826,63787641.43153834
1865,64112400.0
1902,0.0
1915,0.0
1956,314245013.7865781
1981,402878222.8033052
1994,0.0
2076,30384.33882352941
2,1, 1, 1, 0, 5, 0.00,60.00,Holiday
9,218188908.8161338
45,15146841.55919508
432,57896985.85326433
714,538121405.3360795
738,3970889.5040791837
899,461064558.9812654
924,0.0
1669,656357.8931907268
1826,81002297.06485082
1865,64112400.0
1902,0.0
1915,0.0
1956,416637402.3489603
1981,534150515.8320003
1994,0.0
2076,30384.338823529408
2,1, 1, 1, 0, 6, 0.00,60.00,Holiday
9,201896249.74676884
45,15146841.55919508
432,57896985.85326433
714,409653681.92630526
738,72000.0
899,366654838.0675069
924,0.0
1669,1148626.3130837719
1826,64709637.9954859
1865,64112400.0
1902,0.0
1915,0.0
1956,319473711.90251806
1981,409581681.92630526
1994,0.0
2076,30384.33882352941
2,1, 1, 1, 0, 7, 0.00,60.00,Holiday
9,218649907.09810759
45,15146841.55919508
432,57896985.85326433
714,546332263.042947
738,3970743.3545852538
899,468208904.306926
924,0.0
1669,656357.8931907268
1826,81463295.3468246
1865,64112400.0
1902,0.0
1915,0.0
1956,423041985.35692229
1981,542361519.6883619
1994,0.0
2076,30384.338823529408
2,1, 1, 1, 0, 8, 0.00,60.00,Holiday
9,159615648.0287426
45,15146841.55919508
432,57896985.85326433
714,406826757.77332749
738,72000.0
899,365033355.6071287
924,0.0
1669,656357.8931907268
1826,65170636.27745968
1865,21370800.0
1902,0.0
1915,0.0
1956,317268711.0631955
1981,406754757.77332749
1994,0.0
2076,30384.33882352941
2,1, 1, 1, 0, 9, 0.00,60.00,Holiday
9,153615510.53415997
45,15146841.55919508
432,57896985.85326433
714,446029284.1719589
738,3970880.465415878
899,393326053.94797369
924,0.0
1669,656357.8931907268
1826,80541298.78287705
1865,0.0
1902,0.0
1915,0.0
1956,344805554.8911036
1981,442058403.706543
1994,0.0
2076,30384.338823529408
2,1, 1, 1, 0,10, 0.00,60.00,Holiday
9,134868314.42545886
45,15146841.55919508
432,57896985.85326433
714,263681250.9712307
738,72000.0
899,254102209.8969894
924,0.0
1669,656357.8931907268
1826,61713149.16265632
1865,0.0
1902,339743.272702407
1915,80953.51151958236
1956,205615215.75755997
1981,263609250.9712307
1994,0.0
2076,30384.33882352941
2,1, 1, 1, 0,11, 0.00,60.00,Holiday
9,144734822.79243887
45,15146841.55919508
432,57896985.85326433
714,302445425.3352078
738,72000.0
899,282754507.97793439
924,0.0
1669,656357.8931907268
1826,71642428.94400433
1865,0.0
1902,76306.08079783058
1915,18182.097151611095
1956,235851271.76146216
1981,302373425.3352078
1994,0.0
2076,30384.338823529408
2,1, 1, 1, 0,12, 0.00,60.00,Holiday
9,122970542.69035825
45,15146841.55919508
432,57896985.85326433
714,201816066.40506796
738,3970588.8633061016
899,196820277.15610589
924,0.0
1669,984536.83978609
1826,49896330.939075339
1865,0.0
1902,0.0
1915,0.0
1956,154319472.48257426
1981,197845477.54176186
1994,0.0
2076,30384.33882352941
2,1, 1, 1, 0,13, 0.00,60.00,Holiday
9,143564144.9903528
45,15146841.55919508
432,57896985.85326433
714,255501071.55795817
738,3971205.66298346
899,247585250.57890899
924,0.0
1669,984536.83978609
1826,70489933.23906988
1865,0.0
1902,0.0
1915,0.0
1956,196193295.39808024
1981,251529865.8949747
1994,0.0
2076,30384.338823529408
2,1, 1, 1, 0,14, 0.00,60.00,Holiday
9,132891922.09027314
45,15146841.55919508
432,57896985.85326433
714,185851189.16590709
738,72000.0
899,196376470.803308
924,0.0
1669,1476805.2596791352
1826,59817710.338990237
1865,0.0
1902,0.0
1915,0.0
1956,144907767.5494075
1981,185779189.16590709
1994,0.0
2076,30384.33882352941
2,1, 1, 1, 0,15, 0.00,60.00,Holiday
9,146533539.07083205
45,15146841.55919508
432,57896985.85326433
714,238974017.66066063
738,3971174.0710445938
899,239777994.57453329
924,0.0
1669,984536.83978609
1826,73459327.31954913
1865,0.0
1902,0.0
1915,0.0
1956,183302217.99990053
1981,235002843.58961604
1994,0.0
2076,30384.33882352941
2,1, 1, 1, 0,16, 0.00,60.00,Holiday
9,134420545.55585597
45,15146841.55919508
432,57896985.85326433
714,193595339.93610735
738,72000.0
899,204649120.32145304
924,0.0
1669,656357.8931907268
1826,61346333.80457303
1865,0.0
1902,0.0
1915,0.0
1956,150948205.15016375
1981,193523339.93610735
1994,0.0
2076,30384.33882352941
2,1, 1, 1, 0,17, 0.00,60.00,Holiday
9,189578452.52164973
45,15146841.55919508
432,57896985.85326433
714,265767851.3308887
738,3970798.361901598
899,260356282.39749358
924,0.0
1669,656357.8931907268
1826,73762640.77036673
1865,42741600.0
1902,0.0
1915,0.0
1956,204201701.31580998
1981,261797052.9689871
1994,0.0
2076,30384.33882352941
2,1, 1, 1, 0,18, 0.00,60.00,Holiday
9,200376938.6837511
45,15146841.55919508
432,57896985.85326433
714,218870218.28544165
738,72000.0
899,225235674.34412606
924,0.0
1669,656357.8931907268
1826,63190326.932468149
1865,64112400.0
1902,0.0
1915,0.0
1956,170662610.2626445
1981,218798218.28544165
1994,0.0
2076,30384.33882352941
2,1, 1, 1, 0,19, 0.00,60.00,Holiday
9,213254243.93151856
45,15146841.55919508
432,57896985.85326433
714,294943816.25936159
738,3970628.157828184
899,283413981.9233001
924,0.0
1669,656357.8931907269
1826,76067632.18023566
1865,64112400.0
1902,0.0
1915,0.0
1956,226959086.71919606
1981,290973188.1015334
1994,0.0
2076,30384.33882352941
2,1, 1, 1, 0,20, 0.00,60.00,Holiday
9,201298935.24769867
45,15146841.55919508
432,57896985.85326433
714,235930091.98828016
738,72000.0
899,238666605.75233788
924,0.0
1669,656357.8931907268
1826,64112323.49641571
1865,64112400.0
1902,0.0
1915,0.0
1956,183969311.75085858
1981,235858091.98828016
1994,0.0
2076,30384.33882352941
2,1, 1, 1, 0,21, 0.00,60.00,Holiday
9,213715242.2134924
45,15146841.55919508
432,57896985.85326433
714,291664077.24336358
738,72000.0
899,284365781.4588901
924,0.0
1669,656357.8931907268
1826,76528630.46220944
1865,64112400.0
1902,0.0
1915,0.0
1956,227441820.24982355
1981,291592077.24336358
1994,0.0
2076,30384.33882352941
2,1, 1, 1, 0,22, 0.00,60.00,Holiday
9,200837936.9657249
45,15146841.55919508
432,57896985.85326433
714,238811941.40743796
738,3971390.7792858926
899,237525992.978418
924,0.0
1669,1148626.3130837719
1826,63651325.21444193
1865,64112400.0
1902,0.0
1915,0.0
1956,183175629.4899586
1981,234840550.62815205
1994,0.0
2076,30384.33882352941
2,1, 1, 1, 0,23, 0.00,60.00,Holiday
9,211410250.80362348
45,15146841.55919508
432,57896985.85326433
714,302170226.0089083
738,3970578.0566993409
899,287420781.1425369
924,0.0
1669,656357.8931907268
1826,74223639.05234052
1865,64112400.0
1902,0.0
1915,0.0
1956,232595725.40272296
1981,298199647.95220896
1994,0.0
2076,30384.33882352941
2,1, 1, 1, 0,24, 0.00,60.00,Holiday
9,198993943.83782975
45,15146841.55919508
432,57896985.85326433
714,245731766.80810539
738,72000.0
899,244067866.16920633
924,0.0
1669,656357.8931907268
1826,61807332.0865468
1865,64112400.0
1902,0.0
1915,0.0
1956,191614618.1103222
1981,245659766.80810539
1994,0.0
2076,30384.33882352941
2,2, 1, 2, 0, 1, 0.00,60.00,Monday
9,225638264.9863333
45,15146841.55919508
432,77195981.13768575
714,317604060.4155783
738,72000.0
899,297570484.7886999
924,0.0
1669,822188.3656156191
1826,69152657.95062892
1865,64112400.0
1902,0.0
1915,0.0
1956,247675007.12415109
1981,317532060.4155783
1994,0.0
2076,30384.33882352941
2,2, 1, 2, 0, 2, 0.00,60.00,Monday
9,213221958.0205396
45,15146841.55919508
432,77195981.13768575
714,269730350.7068405
738,3970981.6843723149
899,255168328.15186594
924,0.0
1669,822188.3656156192
1826,56736350.984835218
1865,64112400.0
1902,0.0
1915,0.0
1956,207292307.83752523
1981,265759369.0224682
1994,0.0
2076,30384.33882352941
2,2, 1, 2, 0, 3, 0.00,60.00,Monday
9,232553239.21594004
45,15146841.55919508
432,77195981.13768575
714,333812185.46589127
738,72000.0
899,314019781.7158907
924,0.0
1669,822188.3656156191
1826,76067632.18023564
1865,64112400.0
1902,0.0
1915,0.0
1956,260317344.66339518
1981,333740185.46589127
1994,0.0
2076,30384.33882352941
2,2, 1, 2, 0, 4, 0.00,60.00,Monday
9,213221958.0205396
45,15146841.55919508
432,77195981.13768575
714,271011474.1137733
738,3971226.2880175046
899,256165471.19784189
924,0.0
1669,822188.3656156192
1826,56736350.984835218
1865,64112400.0
1902,0.0
1915,0.0
1956,208291393.30408953
1981,267040247.82575578
1994,0.0
2076,30384.33882352941
2,2, 1, 2, 0, 5, 0.00,60.00,Monday
9,230709246.08804489
45,15146841.55919508
432,77195981.13768575
714,318350512.56094357
738,72000.0
899,301608476.5461254
924,0.0
1669,822188.3656156191
1826,74223639.05234052
1865,64112400.0
1902,0.0
1915,0.0
1956,248257239.797536
1981,318278512.56094357
1994,0.0
2076,30384.33882352941
2,2, 1, 2, 0, 6, 0.00,60.00,Monday
9,228368799.57973469
45,30293683.11839016
432,77195981.13768575
714,239427666.9444963
738,3971770.5318371977
899,237779725.36991913
924,0.0
1669,1315501.3849849906
1826,56736350.984835218
1865,64112400.0
1902,0.0
1915,0.0
1956,183655599.2018741
1981,235455896.4126591
1994,0.0
2076,30384.33882352941
2,2, 1, 2, 0, 7, 0.00,60.00,Monday
9,293690825.0955527
45,30293683.11839016
432,77195981.13768575
714,1071465899.7999145
738,3971347.7428074937
899,940483692.8575561
924,0.0
1669,1151063.7118618668
1826,122058376.50065318
1865,64112400.0
1902,0.0
1915,0.0
1956,832645750.6045435
1981,1067494552.057107
1994,0.0
2076,30384.33882352941
2,2, 1, 2, 0, 8, 0.00,60.00,Monday
9,351995052.87079456
45,90881049.35517045
432,117654442.67614728
714,1046133917.4026195
738,3973397.7149199459
899,656507197.7874098
924,0.0
1669,3124315.7893393526
1826,122058376.50065318
1865,21370800.0
1902,0.0
1915,0.0
1956,812885205.3564057
1981,1042160519.6876994
1994,0.0
2076,30384.338823529408
2,2, 1, 2, 0, 9, 0.00,60.00,Monday
9,648183833.4977477
45,272643148.0655114
432,253451924.59275989
714,655722717.5159528
738,7880863.828722311
899,433820975.12039878
924,36786557.31520405
1669,5755318.559309332
1826,122058376.50065318
1865,0.0
1902,0.0
1915,0.0
1956,505316645.8760398
1981,647841853.6872306
1994,0.0
2076,30384.338823529408
2,2, 1, 2, 0,10, 0.00,60.00,Monday
9,618128976.3548906
45,272643148.0655114
432,223397067.4499028
714,539632971.2384962
738,7882550.675163675
899,350119678.56291666
924,32937993.623123833
1669,6248631.578678705
1826,122058376.50065318
1865,0.0
1902,0.0
1915,0.0
1956,414765328.0393993
1981,531750420.56333258
1994,0.0
2076,30384.338823529408
2,2, 1, 2, 0,11, 0.00,60.00,Monday
9,611193240.0911543
45,272643148.0655114
432,216461331.18616648
714,451981216.2408688
738,7882465.494467538
899,291988500.8694282
924,31061745.90867216
1669,6413069.25180183
1826,122058376.50065318
1865,0.0
1902,0.0
1915,0.0
1956,346397025.58219298
1981,444098750.7464012
1994,0.0
2076,30384.338823529408
2,2, 1, 2, 0,12, 0.00,60.00,Monday
9,618128976.3548906
45,272643148.0655114
432,223397067.4499028
714,382048578.468022
738,11793156.802447884
899,239629163.18306855
924,34064860.1147103
1669,7728570.636786818
1826,122058376.50065318
1865,0.0
1902,0.0
1915,0.0
1956,288799228.89914789
1981,370255421.6655741
1994,0.0
2076,30384.338823529408
2,2, 1, 2, 0,13, 0.00,60.00,Monday
9,616169321.7298102
45,272643148.0655114
432,221437412.82482205
714,368443477.9082991
738,11798462.936213013
899,228958342.24298958
924,37810296.026590358
1669,9372947.368018058
1826,122058376.50065318
1865,0.0
1902,0.0
1915,0.0
1956,278183111.6782271
1981,356645014.9720861
1994,0.0
2076,30384.338823529408
2,2, 1, 2, 0,14, 0.00,60.00,Monday
9,623908756.5746708
45,272643148.0655114
432,229176847.66968299
714,311643140.7951398
738,11798154.055039123
899,173028098.16761495
924,42459291.82265818
1669,8879634.34864869
1826,122058376.50065318
1865,0.0
1902,0.0
1915,0.0
1956,233879089.65727855
1981,299844986.7401007
1994,0.0
2076,30384.338823529408
2,2, 1, 2, 0,15, 0.00,60.00,Monday
9,611193240.0911543
45,272643148.0655114
432,216461331.18616648
714,313962742.5112727
738,11770689.051967603
899,162568364.06153215
924,42423206.24745206
1669,5590880.886186211
1826,122058376.50065318
1865,0.0
1902,0.0
1915,0.0
1956,235709801.69825799
1981,302192053.45930519
1994,0.0
2076,30384.338823529408
2,2, 1, 2, 0,16, 0.00,60.00,Monday
9,611193240.0911543
45,272643148.0655114
432,216461331.18616648
714,291326651.7717361
738,3991318.8624666768
899,156150636.1422891
924,42019181.60069226
1669,5426443.213063086
1826,122058376.50065318
1865,0.0
1902,0.0
1915,0.0
1956,224121559.66923014
1981,287335332.9092694
1994,0.0
2076,30384.338823529408
2,2, 1, 2, 0,17, 0.00,60.00,Monday
9,664338444.4867587
45,272643148.0655114
432,226864935.58177094
714,289896630.84086218
738,11790889.99050169
899,156032940.91745634
924,46440964.29597362
1669,7235257.617417449
1826,122058376.50065318
1865,42741600.0
1902,0.0
1915,0.0
1956,216922477.86328114
1981,278105740.8503604
1994,0.0
2076,30384.338823529408
2,2, 1, 2, 0,18, 0.00,60.00,Monday
9,624318179.6688541
45,212055781.82873113
432,226061237.00064618
714,354930628.38152888
738,7877547.622293543
899,183705673.06893955
924,49963049.39424202
1669,4275379.501201221
1826,122058376.50065318
1865,64112400.0
1902,0.0
1915,0.0
1956,270701402.9922035
1981,347053080.75923529
1994,0.0
2076,30384.338823529408
2,2, 1, 2, 0,19, 0.00,60.00,Monday
9,467335020.6654285
45,151468415.59195087
432,129665444.23400118
714,419616286.5317753
738,3973818.608130918
899,222840474.860952
924,26577597.70317162
1669,3453191.1355856007
1826,122058376.50065318
1865,64112400.0
1902,0.0
1915,0.0
1956,324201124.98044267
1981,415642467.92364439
1994,0.0
2076,30384.338823529408
2,2, 1, 2, 0,20, 0.00,60.00,Monday
9,458087372.3137802
45,151468415.59195087
432,120417795.88235286
714,409840018.87268719
738,3972570.4078837607
899,218674683.5967337
924,17295160.52009032
1669,2466565.0968468578
1826,122058376.50065318
1865,64112400.0
1902,0.0
1915,0.0
1956,316576609.8025467
1981,405867448.4648034
1994,0.0
2076,30384.338823529408
2,2, 1, 2, 0,21, 0.00,60.00,Monday
9,378201010.7925785
45,90881049.35517045
432,101118800.5979314
714,470183767.2176868
738,3973091.5976515768
899,244995415.16190357
924,9168467.985188906
1669,2795440.4430931059
1826,122058376.50065318
1865,64112400.0
1902,0.0
1915,0.0
1956,363644326.98362746
1981,466210675.6200352
1994,0.0
2076,30384.338823529408
2,2, 1, 2, 0,22, 0.00,60.00,Monday
9,373577186.6167544
45,90881049.35517045
432,96494976.4221072
714,458768792.8900416
738,3971337.3451676929
899,240168728.82477979
924,5554521.163544867
1669,1315501.3849849904
1826,122058376.50065318
1865,64112400.0
1902,0.0
1915,0.0
1956,354742015.32500168
1981,454797455.54487398
1994,0.0
2076,30384.338823529408
2,2, 1, 2, 0,23, 0.00,60.00,Monday
9,179960640.52459405
45,30293683.11839016
432,77195981.13768575
714,2392503.681489382
738,72000.0
899,18991059.317029209
924,0.0
1669,822188.3656156191
1826,8305049.772914827
1865,64112400.0
1902,97122.31049841484
1915,23142.15677974257
1956,1809992.8715617178
1981,2320503.681489382
1994,0.0
2076,30384.33882352941
2,2, 1, 2, 0,24, 0.00,60.00,Monday
9,181782948.61923287
45,15146841.55919508
432,77195981.13768575
714,24169382.960349557
738,3970985.6123906506
899,43874005.16669929
924,0.0
1669,822188.3656156191
1826,25178760.221985196
1865,64112400.0
1902,497658.70678107577
1915,118581.36154328339
1956,15754749.93140795
1981,20198397.347958909
1994,0.0
2076,30384.33882352941
2,3, 1, 3, 0, 1, 0.00,60.00,Tuesday
9,195791060.88436885
45,15146841.55919508
432,77195981.13768575
714,45623048.02093725
738,72000.0
899,74911945.36653713
924,0.0
1669,823896.3607520128
1826,39199718.00176543
1865,64112400.0
1902,444234.8695231244
1915,105735.84689902971
1956,35529817.45633106
1981,45551048.02093725
1994,0.0
2076,30384.33882352941
2,3, 1, 3, 0, 2, 0.00,60.00,Tuesday
9,196258266.0468283
45,15146841.55919508
432,77195981.13768575
714,56556200.44334073
738,3971128.699914765
899,80737236.57363442
924,0.0
1669,823896.3607520128
1826,39700183.58569839
1865,64112400.0
1902,304502.8983534254
1915,72475.42542551999
1956,41016355.95987226
1981,52585071.74342597
1994,0.0
2076,30384.33882352941
2,3, 1, 3, 0, 3, 0.00,60.00,Tuesday
9,205776768.149757
45,15146841.55919508
432,77195981.13768575
714,71835879.36900331
738,72000.0
899,104194531.19686225
924,0.0
1669,823896.3607520128
1826,49256279.43637071
1865,64112400.0
1902,146390.38023872113
1915,34881.67768193584
1956,55975825.90782259
1981,71763879.36900331
1994,0.0
2076,30384.33882352941
2,3, 1, 3, 0, 4, 0.00,60.00,Tuesday
9,197205663.9125053
45,15146841.55919508
432,77195981.13768575
714,73665085.01804362
738,3970916.584373674
899,95154648.28144707
924,0.0
1669,823896.3607520128
1826,40715251.78927343
1865,64112400.0
1902,20165.84742976694
1915,4805.08752748067
1956,54361451.37826256
1981,69694168.43366994
1994,0.0
2076,30384.33882352941
2,3, 1, 3, 0, 5, 0.00,60.00,Tuesday
9,205741886.47207508
45,15146841.55919508
432,77195981.13768575
714,103834734.16021656
738,72000.0
899,128437493.96363533
924,0.0
1669,823896.3607520128
1826,49256279.43637071
1865,64112400.0
1902,0.0
1915,0.0
1956,80934932.64496893
1981,103762734.16021656
1994,0.0
2076,30384.33882352941
2,3, 1, 3, 0, 6, 0.00,60.00,Tuesday
9,212347700.38417293
45,30293683.11839016
432,77195981.13768575
714,112061602.17335838
738,3971722.415659548
899,128931851.38143328
924,0.0
1669,1318234.1772032206
1826,40715251.78927343
1865,64112400.0
1902,0.0
1915,0.0
1956,84310106.21100508
1981,108089879.75769884
1994,0.0
2076,30384.33882352941
2,3, 1, 3, 0, 7, 0.00,60.00,Tuesday
9,293690825.0955527
45,30293683.11839016
432,77195981.13768575
714,652351441.0873768
738,72000.0
899,617572981.7305757
924,0.0
1669,1153454.9050528182
1826,122058376.50065318
1865,64112400.0
1902,0.0
1915,0.0
1956,508777964.048154
1981,652279441.0873768
1994,0.0
2076,30384.33882352941
2,3, 1, 3, 0, 8, 0.00,60.00,Tuesday
9,351995052.87079456
45,90881049.35517045
432,117654442.67614728
714,785183484.0865152
738,7874513.433904378
899,428962302.0827183
924,17598139.85167077
1669,3130806.170857649
1826,122058376.50065318
1865,21370800.0
1902,0.0
1915,0.0
1956,606300997.1090366
1981,777308970.6526109
1994,0.0
2076,30384.33882352941
2,3, 1, 3, 0, 9, 0.00,60.00,Tuesday
9,648183833.4977477
45,272643148.0655114
432,253451924.59275989
714,482373768.01256909
738,7881397.332593637
899,260204115.32679714
924,58098436.11771037
1669,5767274.52526409
1826,122058376.50065318
1865,0.0
1902,0.0
1915,0.0
1956,370104049.1303808
1981,474492370.6799754
1994,0.0
2076,30384.33882352941
2,3, 1, 3, 0,10, 0.00,60.00,Tuesday
9,618128976.3548906
45,272643148.0655114
432,223397067.4499028
714,418790861.6522763
738,7881933.059251594
899,211226568.17275674
924,60881764.97455363
1669,6261612.341715299
1826,122058376.50065318
1865,0.0
1902,0.0
1915,0.0
1956,320508964.3025593
1981,410908928.59302476
1994,0.0
2076,30384.338823529408
2,3, 1, 3, 0,11, 0.00,60.00,Tuesday
9,611193240.0911543
45,272643148.0655114
432,216461331.18616648
714,365317016.46599718
738,7882557.370292841
899,176587516.1074166
924,62476626.372858349
1669,6426391.6138657019
1826,122058376.50065318
1865,0.0
1902,0.0
1915,0.0
1956,278798878.0946494
1981,357434459.0957043
1994,0.0
2076,30384.338823529408
2,3, 1, 3, 0,12, 0.00,60.00,Tuesday
9,618128976.3548906
45,272643148.0655114
432,223397067.4499028
714,324541292.03901436
738,11792076.265139102
899,151152731.55636005
924,67585293.78621581
1669,7744625.791068921
1826,122058376.50065318
1865,0.0
1902,0.0
1915,0.0
1956,243944388.30362267
1981,312749215.77387526
1994,0.0
2076,30384.338823529408
2,3, 1, 3, 0,13, 0.00,60.00,Tuesday
9,616169321.7298102
45,272643148.0655114
432,221437412.82482205
714,327154585.1218715
738,11797248.42586226
899,154213125.8574319
924,64268173.03785478
1669,9392418.512572946
1826,122058376.50065318
1865,0.0
1902,0.0
1915,0.0
1956,245978722.62288726
1981,315357336.6960092
1994,0.0
2076,30384.338823529408
2,3, 1, 3, 0,14, 0.00,60.00,Tuesday
9,623908756.5746708
45,272643148.0655114
432,229176847.66968299
714,261667237.02175705
738,11797045.24093235
899,115222415.3650548
924,75248734.18818611
1669,8898080.69612174
1826,122058376.50065318
1865,0.0
1902,0.0
1915,0.0
1956,194898749.58904327
1981,249870191.78082473
1994,0.0
2076,30384.338823529408
2,3, 1, 3, 0,15, 0.00,60.00,Tuesday
9,611193240.0911543
45,272643148.0655114
432,216461331.18616648
714,245433607.4710289
738,7881120.558417619
899,107561726.34990713
924,74387448.41554787
1669,5602495.253113689
1826,122058376.50065318
1865,0.0
1902,0.0
1915,0.0
1956,185290939.7918368
1981,237552486.91261129
1994,0.0
2076,30384.338823529408
2,3, 1, 3, 0,16, 0.00,60.00,Tuesday
9,611193240.0911543
45,272643148.0655114
432,216461331.18616648
714,242267665.6037937
738,7880410.357042628
899,106533821.1346362
924,76053296.1606541
1669,5437715.980963286
1826,122058376.50065318
1865,0.0
1902,0.0
1915,0.0
1956,182822059.09246583
1981,234387255.24675108
1994,0.0
2076,30384.338823529408
2,3, 1, 3, 0,17, 0.00,60.00,Tuesday
9,664338444.4867587
45,272643148.0655114
432,226864935.58177094
714,257823781.95840828
738,11790922.33664674
899,116673856.14967239
924,80678417.9453482
1669,7250287.974617713
1826,122058376.50065318
1865,42741600.0
1902,0.0
1915,0.0
1956,191905630.504974
1981,246032859.62176154
1994,0.0
2076,30384.338823529408
2,3, 1, 3, 0,18, 0.00,60.00,Tuesday
9,624318179.6688541
45,212055781.82873113
432,226061237.00064618
714,317130604.3710456
738,3974853.4138737765
899,146872597.77855734
924,78211820.89700428
1669,4284261.075910467
1826,122058376.50065318
1865,64112400.0
1902,0.0
1915,0.0
1956,244261485.74659396
1981,313155750.95717188
1994,0.0
2076,30384.338823529408
2,3, 1, 3, 0,19, 0.00,60.00,Tuesday
9,467335020.6654285
45,151468415.59195087
432,129665444.23400118
714,403938963.2299627
738,7876446.940752122
899,185755127.39209218
924,47286681.165194559
1669,3460364.715158454
1826,122058376.50065318
1865,64112400.0
1902,0.0
1915,0.0
1956,308928762.70558437
1981,396062516.28921058
1994,0.0
2076,30384.338823529408
2,3, 1, 3, 0,20, 0.00,60.00,Tuesday
9,458087372.3137802
45,151468415.59195087
432,120417795.88235286
714,419097019.80525127
738,3972753.389224839
899,192549652.57225646
924,36213056.51088361
1669,2471689.082256038
1826,122058376.50065318
1865,64112400.0
1902,0.0
1915,0.0
1956,323796927.8045006
1981,415124266.4160264
1994,0.0
2076,30384.338823529408
2,3, 1, 3, 0,21, 0.00,60.00,Tuesday
9,378201010.7925785
45,90881049.35517045
432,101118800.5979314
714,501872612.9020911
738,3973066.2984506499
899,220486660.48383744
924,20217354.701936149
1669,2801247.6265568446
1826,122058376.50065318
1865,64112400.0
1902,0.0
1915,0.0
1956,388361646.3508396
1981,497899546.60364046
1994,0.0
2076,30384.338823529408
2,3, 1, 3, 0,22, 0.00,60.00,Tuesday
9,373577186.6167544
45,90881049.35517045
432,96494976.4221072
714,517750861.54544606
738,3971440.3039975569
899,227682318.11339439
924,15062612.304973433
1669,1318234.1772032208
1826,122058376.50065318
1865,64112400.0
1902,0.0
1915,0.0
1956,400747948.56832996
1981,513779421.2414484
1994,0.0
2076,30384.338823529408
2,3, 1, 3, 0,23, 0.00,60.00,Tuesday
9,181112003.8159831
45,30293683.11839016
432,77195981.13768575
714,7163843.0181529209
738,72000.0
899,22958531.551471585
924,0.0
1669,823896.3607520128
1826,9479555.221083599
1865,64112400.0
1902,0.0
1915,0.0
1956,5531637.554159278
1981,7091843.0181529209
1994,0.0
2076,30384.33882352941
2,3, 1, 3, 0,24, 0.00,60.00,Tuesday
9,193819379.44178779
45,15146841.55919508
432,77195981.13768575
714,48019271.761873949
738,3971103.089141729
899,71049193.66952288
924,0.0
1669,823896.3607520128
1826,37218814.042352039
1865,64112400.0
1902,482580.73646358426
1915,114958.36373133713
1956,34357571.56473113
1981,44048168.67273221
1994,0.0
2076,30384.338823529408
2,4, 1, 4, 0, 1, 0.00,60.00,Wednesday
9,201030503.350644
45,15146841.55919508
432,77195981.13768575
714,60175190.043973069
738,72000.0
899,93191983.16727713
924,0.0
1669,825570.8460910071
1826,44537176.504978287
1865,64112400.0
1902,32398.26724828745
1915,7719.809961317768
1956,46880488.234299
1981,60103190.043973069
1994,0.0
2076,30384.33882352941
2,4, 1, 4, 0, 2, 0.00,60.00,Wednesday
9,201919961.75637029
45,15146841.55919508
432,77195981.13768575
714,97073567.61713124
738,3970971.9863060249
899,117560900.03755866
924,0.0
1669,825570.8460910071
1826,45434354.720665868
1865,64112400.0
1902,0.0
1915,0.0
1956,72620024.59204366
1981,93102595.6308252
1994,0.0
2076,30384.33882352941
2,4, 1, 4, 0, 3, 0.00,60.00,Wednesday
9,201022783.54068268
45,15146841.55919508
432,77195981.13768575
714,94520172.18559478
738,72000.0
899,119993335.2434336
924,0.0
1669,825570.8460910071
1826,44537176.504978287
1865,64112400.0
1902,0.0
1915,0.0
1956,73669574.30476395
1981,94448172.18559478
1994,0.0
2076,30384.33882352941
2,4, 1, 4, 0, 4, 0.00,60.00,Wednesday
9,201919961.75637029
45,15146841.55919508
432,77195981.13768575
714,128581513.59356001
738,3971109.365569672
899,142628927.80415524
924,0.0
1669,825570.8460910071
1826,45434354.720665868
1865,64112400.0
1902,0.0
1915,0.0
1956,97196115.29783248
1981,124610404.22799035
1994,0.0
2076,30384.33882352941
2,4, 1, 4, 0, 5, 0.00,60.00,Wednesday
9,201022783.54068268
45,15146841.55919508
432,77195981.13768575
714,124739113.64515913
738,72000.0
899,143318578.24169383
924,0.0
1669,825570.8460910071
1826,44537176.504978287
1865,64112400.0
1902,0.0
1915,0.0
1956,97240348.64322414
1981,124667113.64515913
1994,0.0
2076,30384.33882352941
2,4, 1, 4, 0, 6, 0.00,60.00,Wednesday
9,217066803.31556539
45,30293683.11839016
432,77195981.13768575
714,147947256.997268
738,3971686.3242173015
899,162931205.2561621
924,0.0
1669,1320913.3537456117
1826,45434354.720665868
1865,64112400.0
1902,0.0
1915,0.0
1956,112300945.12497954
1981,143975570.6730507
1994,0.0
2076,30384.33882352941
2,4, 1, 4, 0, 7, 0.00,60.00,Wednesday
9,293690825.0955527
45,30293683.11839016
432,77195981.13768575
714,618913566.8910545
738,72000.0
899,589250090.3269097
924,0.0
1669,1155799.18452741
1826,122058376.50065318
1865,64112400.0
1902,0.0
1915,0.0
1956,482696422.1750226
1981,618841566.8910545
1994,0.0
2076,30384.33882352941
2,4, 1, 4, 0, 8, 0.00,60.00,Wednesday
9,351995052.87079456
45,90881049.35517045
432,117654442.67614728
714,736560243.995334
738,7875248.597584816
899,403039699.09246709
924,22676465.298479957
1669,3137169.2151458275
1826,122058376.50065318
1865,21370800.0
1902,0.0
1915,0.0
1956,568374296.4102445
1981,728684995.3977492
1994,0.0
2076,30384.33882352941
2,4, 1, 4, 0, 9, 0.00,60.00,Wednesday
9,648183833.4977477
45,272643148.0655114
432,253451924.59275989
714,423938494.5313907
738,7881040.553179609
899,242237707.9469982
924,68164196.1339795
1669,5778995.92263705
1826,122058376.50065318
1865,0.0
1902,0.0
1915,0.0
1956,324524814.10300466
1981,416057453.9782111
1994,0.0
2076,30384.33882352941
2,4, 1, 4, 0,10, 0.00,60.00,Wednesday
9,618128976.3548906
45,272643148.0655114
432,223397067.4499028
714,344328628.7752487
738,7882182.523403121
899,191108747.3965169
924,68556307.85038759
1669,6274338.430291655
1826,122058376.50065318
1865,0.0
1902,0.0
1915,0.0
1956,262428228.07643957
1981,336446446.2518456
1994,0.0
2076,30384.338823529408
2,4, 1, 4, 0,11, 0.00,60.00,Wednesday
9,611193240.0911543
45,272643148.0655114
432,216461331.18616648
714,291082792.83598646
738,7882865.523400016
899,154518621.52029837
924,69241543.32971186
1669,6439452.599509857
1826,122058376.50065318
1865,0.0
1902,0.0
1915,0.0
1956,220895943.30381743
1981,283199927.3125865
1994,0.0
2076,30384.338823529408
2,4, 1, 4, 0,12, 0.00,60.00,Wednesday
9,618128976.3548906
45,272643148.0655114
432,223397067.4499028
714,252525520.4572255
738,11792386.501859446
899,127366415.24217674
924,73574901.18749318
1669,7760365.953255465
1826,122058376.50065318
1865,0.0
1902,0.0
1915,0.0
1956,187771844.48518554
1981,240733133.95536606
1994,0.0
2076,30384.338823529408
2,4, 1, 4, 0,13, 0.00,60.00,Wednesday
9,616169321.7298102
45,272643148.0655114
432,221437412.82482205
714,253731016.6189604
738,11797805.422039388
899,128619510.18385706
924,69527070.73878587
1669,9411507.64543748
1826,122058376.50065318