Program Version,EnergyPlus, Version 9.2.0-921312fa1d, YMD=2020.12.22 18:27
1,5,Environment Title[],Latitude[deg],Longitude[deg],Time Zone[],Elevation[m]
2,8,Day of Simulation[],Month[],Day of Month[],DST Indicator[1=yes 0=no],Hour[],StartMinute[],EndMinute[],DayType
3,5,Cumulative Day of Simulation[],Month[],Day of Month[],DST Indicator[1=yes 0=no],DayType  ! When Daily Meters Requested
4,2,Cumulative Days of Simulation[],Month[]  ! When Monthly Meters Requested
5,1,Cumulative Days of Simulation[] ! When Run Period Meters Requested
6,1,Calendar Year of Simulation[] ! When Annual Meters Requested
9,1,Electricity:Facility [J] !Hourly
1061,1,Heating:Electricity [J] !Hourly
1008,1,Cooling:Electricity [J] !Hourly
45,1,InteriorLights:Electricity [J] !Hourly
958,1,ExteriorLights:Electricity [J] !Hourly
107,1,InteriorEquipment:Electricity [J] !Hourly
918,1,Fans:Electricity [J] !Hourly
1079,1,Pumps:Electricity [J] !Hourly
304,1,Refrigeration:Electricity [J] !Hourly
170,1,Gas:Facility [J] !Hourly
1048,1,Heating:Gas [J] !Hourly
206,1,InteriorEquipment:Gas [J] !Hourly
486,1,WaterSystems:Gas [J] !Hourly
623,1,Heating:EnergyTransfer [J] !Hourly
648,1,Cooling:EnergyTransfer [J] !Hourly
769,1,WaterSystems:EnergyTransfer [J] !Hourly
279,1,Refrigeration:EnergyTransfer [J] !Hourly
1023,1,HeatingCoils:EnergyTransfer [J] !Hourly
995,1,CoolingCoils:EnergyTransfer [J] !Hourly
End of Data Dictionary
1,RUNPERIOD 1,  41.98, -87.92,  -6.00, 201.00
2,1, 1, 1, 0, 1, 0.00,60.00,Holiday
9,49625260.859354149
45,6039267.112881936
107,20077200.0
170,267373327.6559307
206,10803960.0
279,11950163.28561106
304,4985274.856263385
486,8537948.760221154
623,16193907.256252913
648,1139163.3700074049
769,6438149.020911513
918,7856718.8863113769
958,10666800.0
995,0.0
1008,0.0
1023,195486593.95822678
1048,248031418.89570955
1061,0.0
1079,0.0038974483869948295
2,1, 1, 1, 0, 2, 0.00,60.00,Holiday
9,35265635.712283927
45,2013089.0376273122
107,18000000.0
170,10875960.0
206,10803960.0
279,10800871.75656795
304,4585746.674656611
486,72000.0
623,0.0
648,0.0
769,0.0
918,0.0
958,10666800.0
995,0.0
1008,0.0
1023,0.0
1048,0.0
1061,0.0
1079,0.0
2,1, 1, 1, 0, 3, 0.00,60.00,Holiday
9,38261309.11928885
45,2013089.0376273122
107,18000000.0
170,88775390.99275613
206,10803960.0
279,10421629.993100197
304,4522790.271001888
486,2184210.4427039448
623,2298171.2840603047
648,0.0
769,0.0
918,3058629.8106596397
958,10666800.0
995,0.0
1008,0.0
1023,59114032.02904071
1048,75787220.55005218
1061,0.0
1079,0.0
2,1, 1, 1, 0, 4, 0.00,60.00,Holiday
9,40310763.51064284
45,2013089.0376273122
107,18000000.0
170,154207904.75384007
206,10803960.0
279,10162931.671076617
304,4479063.10559598
486,72000.0
623,5859770.939202563
648,0.0
769,0.0
918,5151811.367419545
958,10666800.0
995,0.0
1008,0.0
1023,112827800.97376856
1048,143331944.75384007
1061,0.0
1079,0.0
2,1, 1, 1, 0, 5, 0.00,60.00,Holiday
9,39533618.206814978
45,2013089.0376273122
107,18000000.0
170,125527316.00949268
206,10803960.0
279,11962330.260058493
304,4925369.726031962
486,2184232.2953713557
623,5399898.872520389
648,0.0
769,0.0
918,3928359.4431556884
958,10666800.0
995,0.0
1008,0.0
1023,88808658.7149119
1048,112539123.71412133
1061,0.0
1079,0.0
2,1, 1, 1, 0, 6, 0.00,60.00,Holiday
9,50010716.362861659
45,6039267.112881936
107,20077200.0
170,299864776.7595194
206,16205939.999999999
279,13438098.284802815
304,5370730.363668339
486,72000.0
623,27615787.76232154
648,0.0
769,0.0
918,7856718.8863113769
958,10666800.0
995,0.0
1008,0.0
1023,223552749.2727524
1048,283586836.7595194
1061,0.0
1079,0.0
2,1, 1, 1, 0, 7, 0.00,60.00,Holiday
9,101619538.81634805
45,12078534.225763873
107,65077200.0
170,304976935.3069869
206,48617819.99999999
279,15174932.311082785
304,5940285.701933645
486,6414729.233776769
623,7929582.592068199
648,6832779.9725644499
769,3862881.379351969
918,7856718.8863113769
958,10666800.0
995,0.0
1008,0.0
1023,196990958.4962514
1048,249944386.07321016
1061,0.0
1079,0.002339168457911247
2,1, 1, 1, 0, 8, 0.00,60.00,Holiday
9,93437144.24959187
45,12078534.225763873
107,65077200.0
170,313678645.9177797
206,75627720.0
279,14525919.928553176
304,5757991.135175794
486,6415485.003049341
623,720434.2325310776
648,11590734.984694576
769,3862889.129184886
918,7856718.8863113769
958,2666700.0
995,0.0
1008,0.0
1023,182568543.21636004
1048,231635440.9147303
1061,0.0
1079,0.0023408477841581818
2,1, 1, 1, 0, 9, 0.00,60.00,Holiday
9,72769748.04220775
45,12078534.225763873
107,47077200.0
170,282555602.3774906
206,54019800.0
279,14522380.200758465
304,5757294.927792174
486,4301618.212730097
623,172612.27980456933
648,10807544.03980022
769,3862891.9879557385
918,7856718.886311376
958,0.0
995,0.0
1008,0.0
1023,176752683.51939763
1048,224234184.16476048
1061,0.0
1079,0.002340322179460754
2,1, 1, 1, 0,10, 0.00,60.00,Holiday
9,72804555.35146712
45,12078534.225763873
107,47077200.0
170,265598886.1892376
206,54019800.0
279,14731960.32268165
304,5792102.237052637
486,6416758.612880986
623,0.0
648,13807578.270891512
769,3862893.8713053569
918,7856718.8863113769
958,0.0
995,0.0
1008,0.0
1023,161718359.1628164
1048,205162327.5763566
1061,0.0
1079,0.002339230531038739
2,1, 1, 1, 0,11, 0.00,60.00,Holiday
9,90793572.66998899
45,12078534.225763873
107,65077200.0
170,314208237.56471428
206,118843560.0
279,14658767.639955923
304,5781119.550112203
486,19161716.43872488
623,0.0
648,24289360.57753669
769,12876302.544609793
918,7856718.8863113769
958,0.0
995,0.0
1008,0.0
1023,138787416.5404122
1048,176202961.12598939
1061,0.0
1079,0.0078015523897018439
2,1, 1, 1, 0,12, 0.00,60.00,Holiday
9,94964864.74652994
45,12078534.225763873
107,65077200.0
170,309884890.3538964
206,145853460.00000004
279,17625118.767790706
304,9952411.626655953
486,17034188.963802767
623,0.0
648,36136022.195546727
769,12876307.962637857
918,7856718.8863113769
958,0.0
995,0.0
1008,0.0
1023,115736997.8289768
1048,146997241.39009357
1061,0.0
1079,0.007798740218368826
2,1, 1, 1, 0,13, 0.00,60.00,Holiday
9,91584106.6041374
45,12078534.225763873
107,65077200.0
170,271995343.9298773
206,129647519.99999999
279,17950165.676852757
304,6571653.485819949
486,12785190.818218295
623,0.0
648,41114173.16274844
769,10301025.842070694
918,7856718.8863113769
958,0.0
995,0.0
1008,0.0
1023,101992274.59995483
1048,129562633.11165899
1061,0.0
1079,0.0062422251512291239
2,1, 1, 1, 0,14, 0.00,60.00,Holiday
9,90862223.31468214
45,12078534.225763873
107,65077200.0
170,250547346.9927457
206,113441580.0
279,15062545.966467027
304,5849770.196368903
486,14906034.58751275
623,0.0
648,39662423.93460068
769,10300981.70480141
918,7856718.8863113769
958,0.0
995,0.0
1008,0.0
1023,96162784.32223559
1048,122199732.40523294
1061,0.0
1079,0.006237993745086752
2,1, 1, 1, 0,15, 0.00,60.00,Holiday
9,72885997.07350104
45,12078534.225763873
107,47077200.0
170,218295810.29815663
206,75627720.0
279,15208314.810103538
304,5873543.956745851
486,10657588.538472236
623,0.0
648,29179064.819338189
769,7725787.504352847
918,7856718.8863113769
958,0.0
995,0.0
1008,0.0
1023,103907937.55280389
1048,132010501.75968439
1061,0.0
1079,0.004679949194661127
2,1, 1, 1, 0,16, 0.00,60.00,Holiday
9,72844976.87736079
45,12078534.225763873
107,47077200.0
170,216956497.56969846
206,70225740.0
279,14963294.961900153
304,5832523.7606044639
486,10656518.751124064
623,0.0
648,26003415.671600969
769,7725788.237265969
918,7856718.8863113769
958,0.0
995,0.0
1008,0.0
1023,107116698.44654018
1048,136074238.81857438
1061,0.0
1079,0.004681093894967171
2,1, 1, 1, 0,17, 0.00,60.00,Holiday
9,80562648.12560052
45,12078534.225763873
107,47077200.0
170,230417445.0387637
206,81029700.0
279,13266224.239157558
304,5550095.0088450289
486,12774874.724064734
623,0.0
648,25613275.108632685
769,7725781.4000030909
918,7856718.8863113769
958,8000100.0
995,0.0
1008,0.0
1023,107534054.64537812
1048,136612870.31469897
1061,0.0
1079,0.004680246399536353
2,1, 1, 1, 0,18, 0.00,60.00,Holiday
9,101240647.06706117
45,12078534.225763873
107,65077200.0
170,236757805.95848606
206,91833660.00000002
279,13331267.194227007
304,5561393.948746597
486,12783720.906979042
623,0.0
648,31675276.276536257
769,10300990.843907886
918,7856718.8863113769
958,10666800.0
995,0.0
1008,0.0
1023,103981412.22426312
1048,132140425.05150698
1061,0.0
1079,0.006239329724205413
2,1, 1, 1, 0,19, 0.00,60.00,Holiday
9,101242875.28464028
45,12078534.225763873
107,65077200.0
170,238069377.24500079
206,91833660.00000002
279,13344076.9833319
304,5563622.164762436
486,17040386.18319407
623,0.0
648,37542707.643880579
769,12876314.516901169
918,7856718.8863113769
958,10666800.0
995,0.0
1008,0.0
1023,101689308.38774336
1048,129195331.0618067
1061,0.0
1079,0.007802611284216504
2,1, 1, 1, 0,20, 0.00,60.00,Holiday
9,101761047.41739147
45,12078534.225763873
107,65077200.0
170,234962382.67187105
206,91833660.00000002
279,15562380.72879694
304,6081794.297518533
486,19154480.530895458
623,0.0
648,38356858.093053158
769,12876314.901371105
918,7856718.8863113769
958,10666800.0
995,0.0
1008,0.0
1023,97564932.11852899
1048,123974242.14097558
1061,0.0
1079,0.007797697405635464
2,1, 1, 1, 0,21, 0.00,60.00,Holiday
9,83723673.21707367
45,12078534.225763873
107,47077200.0
170,225374684.42883943
206,81029700.0
279,15396173.904890046
304,6044420.098757271
486,12784647.342556812
623,0.0
648,32114830.581490794
769,10301040.438831149
918,7856718.8863113769
958,10666800.0
995,0.0
1008,0.0
1023,103569561.66116089
1048,131560337.08628258
1061,0.0
1079,0.006241154297564096
2,1, 1, 1, 0,22, 0.00,60.00,Holiday
9,83493959.20614648
45,12078534.225763873
107,47077200.0
170,227287934.44075234
206,75627720.0
279,14411050.845411465
304,5814706.08627137
486,19157029.624180225
623,0.0
648,30385991.308916645
769,12876300.125726555
918,7856718.8863113769
958,10666800.0
995,0.0
1008,0.0
1023,104309519.76352972
1048,132503184.8165721
1061,0.0
1079,0.007799872118665178
2,1, 1, 1, 0,23, 0.00,60.00,Holiday
9,83119815.99384606
45,12078534.225763873
107,47077200.0
170,217117564.5784169
206,64823759.99999999
279,12807341.090256358
304,5440562.875531113
486,12783915.81030133
623,0.0
648,25866389.626523258
769,10301039.620996844
918,7856718.8863113769
958,10666800.0
995,0.0
1008,0.0
1023,109822554.29496603
1048,139509888.7681156
1061,0.0
1079,0.006239716974389057
2,1, 1, 1, 0,24, 0.00,60.00,Holiday
9,87435124.7124769
45,12078534.225763873
107,47077200.0
170,170073954.70614857
206,10803960.0
279,16445878.59155565
304,9755871.597283444
486,8533529.339765037
623,0.0
648,18439783.78832105
769,5150520.905474301
918,7856718.8863113769
958,10666800.0
995,0.0
1008,0.0
1023,118701297.32234988
1048,150736465.36638353
1061,0.0
1079,0.0031182038055560707
2,2, 1, 2, 0, 1, 0.00,60.00,Monday
9,50342327.32661821
45,6039267.112881936
107,20077200.0
170,214107672.7328451
206,10803960.0
279,15021276.686228034
304,5702341.324301687
486,6417018.207721323
623,11720182.874507875
648,2838774.2806946195
769,5159918.011061622
918,7856718.8863113769
958,10666800.0
995,0.0
1008,0.0
1023,155130097.76342083
1048,196886694.52512378
1061,0.0
1079,0.0031232004527808768
2,2, 1, 2, 0, 2, 0.00,60.00,Monday
9,35361094.51215091
45,2013089.0376273122
107,18000000.0
170,12988301.660008658
206,10803960.0
279,11364619.450191088
304,4681205.474523597
486,2184341.660008658
623,0.0
648,0.0
769,0.0
918,0.0
958,10666800.0
995,0.0
1008,0.0
1023,0.0
1048,0.0
1061,0.0
1079,0.0
2,2, 1, 2, 0, 3, 0.00,60.00,Monday
9,35339100.79726236
45,2013089.0376273122
107,18000000.0
170,10875960.0
206,10803960.0
279,11229597.647436481
304,4659211.759635051
486,72000.0
623,0.0
648,0.0
769,0.0
918,0.0
958,10666800.0
995,0.0
1008,0.0
1023,0.0
1048,0.0
1061,0.0
1079,0.0
2,2, 1, 2, 0, 4, 0.00,60.00,Monday
9,35315366.20232545
45,2013089.0376273122
107,18000000.0
170,12988132.464292583
206,10803960.0
279,11087330.663482659
304,4635477.1646981299
486,2184172.4642925828
623,0.0
648,0.0
769,0.0
918,0.0
958,10666800.0
995,0.0
1008,0.0
1023,0.0
1048,0.0
1061,0.0
1079,0.0
2,2, 1, 2, 0, 5, 0.00,60.00,Monday
9,35818682.049976829
45,2013089.0376273122
107,18000000.0
170,10875960.0
206,10803960.0
279,13217356.670361404
304,5138793.012349511
486,72000.0
623,0.0
648,0.0
769,0.0
918,0.0
958,10666800.0
995,0.0
1008,0.0
1023,0.0
1048,0.0
1061,0.0
1079,0.0
2,2, 1, 2, 0, 6, 0.00,60.00,Monday
9,50087341.05611187
45,6039267.112881936
107,20077200.0
170,206743942.05977006
206,16205939.999999999
279,13885847.307105612
304,5447355.056918554
486,2184194.401156071
623,15881943.208875729
648,524381.0349809196
769,0.0
918,7856718.8863113769
958,10666800.0
995,0.0
1008,0.0
1023,148423163.82581593
1048,188353807.65861399
1061,0.0
1079,0.0
2,2, 1, 2, 0, 7, 0.00,60.00,Monday
9,101653029.74495411
45,12078534.225763873
107,65077200.0
170,209339248.6814083
206,48617819.99999999
279,15368614.957388297
304,5973776.630535025
486,6415318.165028441
623,1404261.1839738207
648,10933545.116431185
769,3869923.5032256229
918,7856718.8863113769
958,10666800.0
995,0.0
1008,0.0
1023,121539054.17494601
1048,154306110.51637987
1061,0.0
1079,0.0023438625286844839
2,2, 1, 2, 0, 8, 0.00,60.00,Monday
9,93492493.86853072
45,12078534.225763873
107,65077200.0
170,230145051.50100196
206,75627720.0
279,14844007.889914243
304,5813340.747092427
486,19173191.91722727
623,0.0
648,23255172.841450007
769,15479753.39669874
918,7856718.8863113769
958,2666700.0
995,0.0
1008,0.0
1023,106583796.78329745
1048,135344139.5837747
1061,0.0
1079,0.0093630548487993
2,2, 1, 2, 0, 9, 0.00,60.00,Monday
9,72824922.90327306
45,12078534.225763873
107,47077200.0
170,208713260.06892435
206,54019800.0
279,14838989.923958756
304,5812469.782614357
486,19166271.894869508
623,0.0
648,20629883.722752379
769,14189784.923261162
918,7856718.8863113769
958,0.0
995,0.0
1008,0.0
1023,106728632.79130304
1048,135527188.17405487
1061,0.0
1079,0.008583468548634201
2,2, 1, 2, 0,10, 0.00,60.00,Monday
9,72876164.36836607
45,12078534.225763873
107,47077200.0
170,202934485.24680618
206,54019800.0
279,15069544.819877129
304,5863711.24927033
486,17030972.364152317
623,0.0
648,19535566.034676948
769,11609804.120071553
918,7856718.8863113769
958,0.0
995,0.0
1008,0.0
1023,103845129.25800266
1048,131883712.88265386
1061,0.0
1079,0.007020489046078062
2,2, 1, 2, 0,11, 0.00,60.00,Monday
9,90888231.114416
45,12078534.225763873
107,65077200.0
170,247729629.2068029
206,118843560.0
279,14951623.154683173
304,5875777.99609611
486,14902577.000280299
623,0.0
648,27676286.970880346
769,10319834.423894395
918,7856718.8863113769
958,0.0
995,0.0
1008,0.0
1023,89653799.14227903
1048,113983492.20652262
1061,0.0
1079,0.006244669508309178
2,2, 1, 2, 0,12, 0.00,60.00,Monday
9,95025621.87634799
45,12078534.225763873
107,65077200.0
170,256730133.24199528
206,145853460.00000004
279,17816379.87137104
304,10013168.757252677
486,14911258.857881114
623,0.0
648,39195028.454405758
769,11609805.203703696
918,7856718.8863113769
958,0.0
995,0.0
1008,0.0
1023,75444109.7123859
1048,95965414.38411416
1061,0.0
1079,0.007020084202087773
2,2, 1, 2, 0,13, 0.00,60.00,Monday
9,91688279.12216434
45,12078534.225763873
107,65077200.0
170,231171895.38738717
206,129647519.99999999
279,18227305.710401417
304,6675826.003846118
486,14903284.064170082
623,0.0
648,46784418.24841978
769,10319831.52196967
918,7856718.8863113769
958,0.0
995,0.0
1008,0.0
1023,68131455.66297378
1048,86621091.3232171
1061,0.0
1079,0.0062429982450537429
2,2, 1, 2, 0,14, 0.00,60.00,Monday
9,90940301.02442019
45,12078534.225763873
107,65077200.0
170,223942546.24863032
206,113441580.0
279,15388215.207728789
304,5927847.906882022
486,12779222.815890406
623,0.0
648,45089947.064094599
769,9029850.760902156
918,7856718.8863113769
958,0.0
995,0.0
1008,0.0
1023,76872639.94790155
1048,97721743.43273992
1061,0.0
1079,0.005462933752893936
2,2, 1, 2, 0,15, 0.00,60.00,Monday
9,72947376.97007987
45,12078534.225763873
107,47077200.0
170,209893083.1284384
206,75627720.0
279,15561907.017478794
304,5934923.85332374
486,10657389.607888775
623,0.0
648,31348920.463603364
769,7739877.725097278
918,7856718.8863113769
958,0.0
995,0.0
1008,0.0
1023,97267903.9504171
1048,123607973.52054963
1061,0.0
1079,0.0046808886509070528
2,2, 1, 2, 0,16, 0.00,60.00,Monday
9,72908986.4966531
45,12078534.225763873
107,47077200.0
170,207441435.82570864
206,70225740.0
279,15287885.381796102
304,5896533.379896097
486,10658602.140830439
623,0.0
648,25538070.230877248
769,7739871.9683833769
918,7856718.8863113769
958,0.0
995,0.0
1008,0.0
1023,99571722.56141597
1048,126557093.68487819
1061,0.0
1079,0.004681750713376195
2,2, 1, 2, 0,17, 0.00,60.00,Monday
9,80632510.53887882
45,12078534.225763873
107,47077200.0
170,213543626.0934324
206,81029700.0
279,13551143.683974313
304,5619957.422121101
486,10657621.501415292
623,0.0
648,26265160.11939638
769,7739868.519751405
918,7856718.8863113769
958,8000100.0
995,0.0
1008,0.0
1023,95866245.34380374
1048,121856304.59201712
1061,0.0
1079,0.004682481560988079
2,2, 1, 2, 0,18, 0.00,60.00,Monday
9,101299030.45402538
45,12078534.225763873
107,65077200.0
170,221091881.49144829
206,91833660.00000002
279,13652800.849638325
304,5619777.335708878
486,14903840.380232051
623,0.0
648,37193701.37071135
769,10319841.194932249
918,7856718.8863113769
958,10666800.0
995,0.0
1008,0.0
1023,89973708.00963587
1048,114354381.11121625
1061,0.0
1079,0.006241267015900278
2,2, 1, 2, 0,19, 0.00,60.00,Monday
9,101308003.40648836
45,12078534.225763873
107,65077200.0
170,219231327.4664539
206,91833660.00000002
279,13675097.427925794
304,5628750.285829485
486,19164190.338761845
623,0.0
648,40024247.29489742
769,14189784.17307375
918,7856718.8863113769
958,10666800.0
995,0.0
1008,0.0
1023,85139700.96944869
1048,108233477.12769205
1061,0.0
1079,0.008583643672637646
2,2, 1, 2, 0,20, 0.00,60.00,Monday
9,101845285.83408369
45,12078534.225763873
107,65077200.0
170,213497679.02619419
206,91833660.00000002
279,15868937.151576434
304,6166032.712643762
486,21295981.811356915
623,0.0
648,41150709.21116109
769,15479761.83252378
918,7856718.8863113769
958,10666800.0
995,0.0
1008,0.0
1023,78927592.82213173
1048,100368037.21483726
1061,0.0
1079,0.009364687113813258
2,2, 1, 2, 0,21, 0.00,60.00,Monday
9,83824547.82309565
45,12078534.225763873
107,47077200.0
170,201180323.34146587
206,81029700.0
279,15688473.174562887
304,6145294.703219462
486,17032199.59145833
623,0.0
648,35215289.59511372
769,12899807.243714197
918,7856718.8863113769
958,10666800.0
995,0.0
1008,0.0
1023,81116020.20625505
1048,103118423.75000754
1061,0.0
1079,0.007800938424122121
2,2, 1, 2, 0,22, 0.00,60.00,Monday
9,83612883.26400016
45,12078534.225763873
107,47077200.0
170,195384217.83187033
206,75627720.0
279,14707767.945836924
304,5933630.14334163
486,19165769.290580304
623,0.0
648,33653738.64828077
769,14189787.424524432
918,7856718.8863113769
958,10666800.0
995,0.0
1008,0.0
1023,79120548.13611266
1048,100590728.54129002
1061,0.0
1079,0.008583301568664676
2,2, 1, 2, 0,23, 0.00,60.00,Monday
9,83198777.17295727
45,12078534.225763873
107,47077200.0
170,196679914.3545537
206,64823759.99999999
279,13106316.072397436
304,5519524.053856368
486,14907857.409198234
623,0.0
648,28657038.569770799
769,11609813.657274265
918,7856718.8863113769
958,10666800.0
995,0.0
1008,0.0
1023,92014802.68863483
1048,116948296.94535545
1061,0.0
1079,0.007025672887000137
2,2, 1, 2, 0,24, 0.00,60.00,Monday
9,87477899.02781119
45,12078534.225763873
107,47077200.0
170,155066012.11265827
206,10803960.0
279,16702524.478874473
304,9798645.911836584
486,10652440.241095333
623,0.0
648,20949780.216232558
769,6449903.440585782
918,7856718.8863113769
958,10666800.0
995,0.0
1008,0.0
1023,105183106.86188619
1048,133609611.87156293
1061,0.0
1079,0.003899364742663049
2,3, 1, 3, 0, 1, 0.00,60.00,Tuesday
9,50385922.91009232
45,6039267.112881936
107,20077200.0
170,182263745.00583203
206,10803960.0
279,15289078.341804397
304,5745936.907775235
486,6417082.411909232
623,9016462.448057514
648,5130041.240222001
769,5169124.676387824
918,7856718.8863113769
958,10666800.0
995,0.0
1008,0.0
1023,130000927.35040437
1048,165042702.5939228
1061,0.0
1079,0.0031237641743365829
2,3, 1, 3, 0, 2, 0.00,60.00,Tuesday
9,35433603.704629499
45,2013089.0376273122
107,18000000.0
170,12988262.296408683
206,10803960.0
279,11792867.000019514
304,4753714.667002176
486,2184302.2964086828
623,0.0
648,0.0
769,0.0
918,0.0
958,10666800.0
995,0.0
1008,0.0
1023,0.0
1048,0.0
1061,0.0
1079,0.0
2,3, 1, 3, 0, 3, 0.00,60.00,Tuesday
9,35443444.06013112
45,2013089.0376273122
107,18000000.0
170,10875960.0
206,10803960.0
279,11771058.5788486
304,4763555.022503808
486,72000.0
623,0.0
648,0.0
769,0.0
918,0.0
958,10666800.0
995,0.0
1008,0.0
1023,0.0
1048,0.0
1061,0.0
1079,0.0
2,3, 1, 3, 0, 4, 0.00,60.00,Tuesday
9,35424429.28036708
45,2013089.0376273122
107,18000000.0
170,12988284.037676648
206,10803960.0
279,11687007.233722903
304,4744540.242739758
486,2184324.037676647
623,0.0
648,0.0
769,0.0
918,0.0
958,10666800.0
995,0.0
1008,0.0
1023,0.0
1048,0.0
1061,0.0
1079,0.0
2,3, 1, 3, 0, 5, 0.00,60.00,Tuesday
9,37772391.54326248
45,2013089.0376273122
107,18000000.0
170,10875960.0
206,10803960.0
279,21694463.04952094
304,7092502.505635161
486,72000.0
623,0.0
648,0.0
769,0.0
918,0.0
958,10666800.0
995,0.0
1008,0.0
1023,0.0
1048,0.0
1061,0.0
1079,0.0
2,3, 1, 3, 0, 6, 0.00,60.00,Tuesday
9,51944870.39528624
45,6039267.112881936
107,20077200.0
170,209947127.7975366
206,16205939.999999999
279,21859647.722679855
304,7304884.3960929219
486,2184345.7374588155
623,14493041.221885786
648,1383191.103625731
769,0.0
918,7856718.8863113769
958,10666800.0
995,0.0
1008,0.0
1023,150942571.0717398
1048,191556842.0600778
1061,0.0
1079,0.0
2,3, 1, 3, 0, 7, 0.00,60.00,Tuesday
9,102481985.40378638
45,12078534.225763873
107,65077200.0
170,224165516.0207605
206,48617819.99999999
279,18917901.458661155
304,6802732.289370468
486,4300925.177032372
623,1277550.6612044248
648,11445966.418743756
769,3876855.744426417
918,7856718.8863113769
958,10666800.0
995,0.0
1008,0.0
1023,134902262.95251978
1048,171246770.84372813
1061,0.0
1079,0.0023406811301227268
2,3, 1, 3, 0, 8, 0.00,60.00,Tuesday
9,93491443.8685409
45,12078534.225763873
107,65077200.0
170,255077313.82693929
206,75627720.0
279,14837959.829561327
304,5812290.747100352
486,21297797.294087065
623,0.0
648,23231791.544688096
769,15507424.598610923
918,7856718.8863113769
958,2666700.0
995,0.0
1008,0.0
1023,124575267.65816453
1048,158151796.5328522
1061,0.0
1079,0.009365299526489651
2,3, 1, 3, 0, 9, 0.00,60.00,Tuesday
9,72817838.60831909
45,12078534.225763873
107,47077200.0
170,241533047.9044091
206,54019800.0
279,14798185.928528207
304,5805385.487657441
486,19167382.16820264
623,0.0
648,19728781.34991184
769,14215138.280812704
918,7856718.8863113769
958,0.0
995,0.0
1008,0.0
1023,132622540.6666338
1048,168345865.7362065
1061,0.0
1079,0.008586405078721424
2,3, 1, 3, 0,10, 0.00,60.00,Tuesday
9,72846518.2643309
45,12078534.225763873
107,47077200.0
170,245342586.04883228
206,54019800.0
279,14972193.917316167
304,5834065.1452310369
486,17029648.03876608
623,0.0
648,17771666.262054564
769,11630567.410882939
918,7856718.8863113769
958,0.0
995,0.0
1008,0.0
1023,137308243.4095881
1048,174293138.0100662
1061,0.0
1079,0.00702461746271205
2,3, 1, 3, 0,11, 0.00,60.00,Tuesday
9,90828938.29001183
45,12078534.225763873
107,65077200.0
170,293746245.1226343
206,118843560.0
279,14862093.327206392
304,5816485.171689399
486,12784912.715082866
623,0.0
648,25392164.53411354
769,10338280.71997742
918,7856718.8863113769
958,0.0
995,0.0
1008,0.0
1023,127635196.48368067
1048,162117772.40755148
1061,0.0
1079,0.006247190545373734
2,3, 1, 3, 0,12, 0.00,60.00,Tuesday
9,94985237.84502013
45,12078534.225763873
107,65077200.0
170,305992841.7679561
206,145853460.00000004
279,17747357.36339528
304,9972784.725923384
486,17032444.086703253
623,0.0
648,36689356.35820969
769,11630558.62936858
918,7856718.8863113769
958,0.0
995,0.0
1008,0.0
1023,112640475.67249407
1048,143106937.68125279
1061,0.0
1079,0.007021530358397642
2,3, 1, 3, 0,13, 0.00,60.00,Tuesday
9,91605537.55695337
45,12078534.225763873
107,65077200.0
170,272708041.68157759
206,129647519.99999999
279,18086571.800972009
304,6593084.438632198
486,14903371.873970796
623,0.0
648,44888490.82359524
769,10338261.103075853
918,7856718.8863113769
958,0.0
995,0.0
1008,0.0
1023,100893693.12123454
1048,128157149.80760676
1061,0.0
1079,0.006245939194494747
2,3, 1, 3, 0,14, 0.00,60.00,Tuesday
9,90886755.79710908
45,12078534.225763873
107,65077200.0
170,254648802.7631337
206,113441580.0
279,15203908.177118764
304,5874302.6795692299
486,12778668.563303013
623,0.0
648,43413936.330374438
769,9045974.226203537
918,7856718.8863113769
958,0.0
995,0.0
1008,0.0
1023,101097738.46696836
1048,128428554.19983071
1061,0.0
1079,0.005464629377011062
2,3, 1, 3, 0,15, 0.00,60.00,Tuesday
9,72902927.01663241
45,12078534.225763873
107,47077200.0
170,231967033.1125428
206,75627720.0
279,15305800.446065078
304,5890473.899874103
486,10657611.534493212
623,0.0
648,29786811.35574385
769,7753711.905385677
918,7856718.8863113769
958,0.0
995,0.0
1008,0.0
1023,114689238.50329942
1048,145681701.5780496
1061,0.0
1079,0.004683062936042625
2,3, 1, 3, 0,16, 0.00,60.00,Tuesday
9,72852484.47771448
45,12078534.225763873
107,47077200.0
170,234320950.81335808
206,70225740.0
279,15006528.599474993
304,5840031.360956924
486,10657176.277315058
623,0.0
648,23682370.711888248
769,7753710.514055393
918,7856718.8863113769
958,0.0
995,0.0
1008,0.0
1023,120787510.51761326
1048,153438034.53604303
1061,0.0
1079,0.004682311720034046
2,3, 1, 3, 0,17, 0.00,60.00,Tuesday
9,80566974.90201628
45,12078534.225763873
107,47077200.0
170,244672385.58588244
206,81029700.0
279,13291145.828906477
304,5554421.785257057
486,10658868.504749107
623,0.0
648,24065989.408988134
769,7753696.379792129
918,7856718.8863113769
958,8000100.0
995,0.0
1008,0.0
1023,120432099.26762966
1048,152983817.0811333
1061,0.0
1079,0.0046839832185339319
2,3, 1, 3, 0,18, 0.00,60.00,Tuesday
9,101249908.56655953
45,12078534.225763873
107,65077200.0
170,245489835.1508633
206,91833660.00000002
279,13384597.30757122
304,5570655.448240375
486,14903924.207073827
623,0.0
648,35281594.09578366
769,10338274.183260981
918,7856718.8863113769
958,10666800.0
995,0.0
1008,0.0
1023,109228077.11512465
1048,138752250.94378949
1061,0.0
1079,0.006243910974751214
2,3, 1, 3, 0,19, 0.00,60.00,Tuesday
9,101249084.78803385
45,12078534.225763873
107,65077200.0
170,246639527.4409436
206,91833660.00000002
279,13379827.291246742
304,5569831.667372214
486,19164157.368067955
623,0.0
648,37723809.57179524
769,14215137.39117795
918,7856718.8863113769
958,10666800.0
995,0.0
1008,0.0
1023,106768511.91739524
1048,135641710.07287563
1061,0.0
1079,0.008586398973552439
2,3, 1, 3, 0,20, 0.00,60.00,Tuesday
9,101249818.92053497
45,12078534.225763873
107,65077200.0
170,248119164.7241825
206,91833660.00000002
279,13384054.060475566
304,5570565.799091954
486,21296241.538151668
623,0.0
648,38262511.4954036
769,15507419.611328347
918,7856718.8863113769
958,10666800.0
995,0.0
1008,0.0
1023,106247731.15659252
1048,134989263.1860308
1061,0.0
1079,0.009367765384003276
2,3, 1, 3, 0,21, 0.00,60.00,Tuesday
9,83245619.48202567
45,12078534.225763873
107,47077200.0
170,241146991.66955359
206,81029700.0
279,13359888.061122306
304,5566366.3621467319
486,17032596.70472358
623,0.0
648,31875961.031431397
769,12922854.233693446
918,7856718.8863113769
958,10666800.0
995,0.0
1008,0.0
1023,112653794.2645646
1048,143084694.96482999
1061,0.0
1079,0.007803707979847253
2,3, 1, 3, 0,22, 0.00,60.00,Tuesday
9,83127663.88315201
45,12078534.225763873
107,47077200.0
170,240558185.3228513
206,75627720.0
279,12853406.723820283
304,5448410.762490516
486,19166453.503925086
623,0.0
648,29775098.290702255
769,14215138.972309404
918,7856718.8863113769
958,10666800.0
995,0.0
1008,0.0
1023,114766209.04770325
1048,145764011.81892628
1061,0.0
1079,0.00858625630538177
2,3, 1, 3, 0,23, 0.00,60.00,Tuesday
9,83123449.44203153
45,12078534.225763873
107,47077200.0
170,231246063.92362578
206,64823759.99999999
279,12828670.971790318
304,5444196.322927678
486,14906893.391162627
623,0.0
648,25246259.455032976
769,11630559.76074191
918,7856718.8863113769
958,10666800.0
995,0.0
1008,0.0
1023,119290365.78095217
1048,151515410.5324632
1061,0.0
1079,0.007028621854873943
2,3, 1, 3, 0,24, 0.00,60.00,Tuesday
9,87439838.09961972
45,12078534.225763873
107,47077200.0
170,182150221.84731079
206,10803960.0
279,16474158.909722427
304,9760584.983644573
486,10651712.99874118
623,0.0
648,17949929.525281565
769,6461427.113292309
918,7856718.8863113769
958,10666800.0
995,0.0
1008,0.0
1023,126554675.74848892
1048,160694548.84856964
1061,0.0
1079,0.0038998943816017418
2,4, 1, 4, 0, 1, 0.00,60.00,Wednesday
9,50348158.14610521
45,6039267.112881936
107,20077200.0
170,211423362.57160104
206,10803960.0
279,15058375.295578568
304,5708172.143785959
486,6415880.945885489
623,11596297.044304882
648,3058806.1420822294
769,5178167.758870205
918,7856718.8863113769
958,10666800.0
995,0.0
1008,0.0
1023,153011110.39937488
1048,194203521.62571556
1061,0.0
1079,0.0031259325028865196
2,4, 1, 4, 0, 2, 0.00,60.00,Wednesday
9,35364492.85490375
45,2013089.0376273122
107,18000000.0
170,12988300.412033277
206,10803960.0
279,11384896.619992642
304,4684603.817276435
486,2184340.4120332777
623,0.0
648,0.0
769,0.0
918,0.0
958,10666800.0
995,0.0
1008,0.0
1023,0.0
1048,0.0
1061,0.0
1079,0.0
2,4, 1, 4, 0, 3, 0.00,60.00,Wednesday
9,35347907.66246314
45,2013089.0376273122
107,18000000.0
170,10875960.0
206,10803960.0
279,11281561.95265195
304,4668018.624835825
486,72000.0
623,0.0
648,0.0
769,0.0
918,0.0
958,10666800.0
995,0.0
1008,0.0
1023,0.0
1048,0.0
1061,0.0
1079,0.0
2,4, 1, 4, 0, 4, 0.00,60.00,Wednesday
9,35328810.45604574
45,2013089.0376273122
107,18000000.0
170,12988213.227964856
206,10803960.0
279,11166550.103119
304,4648921.418418427
486,2184253.2279648559
623,0.0
648,0.0
769,0.0
918,0.0
958,10666800.0
995,0.0
1008,0.0
1023,0.0
1048,0.0
1061,0.0
1079,0.0
2,4, 1, 4, 0, 5, 0.00,60.00,Wednesday
9,35821395.097576808
45,2013089.0376273122
107,18000000.0
170,10875960.0
206,10803960.0
279,13232756.010030523
304,5141506.059949491
486,72000.0
623,0.0
648,0.0
769,0.0
918,0.0
958,10666800.0
995,0.0
1008,0.0
1023,0.0
1048,0.0
1061,0.0