Program Version,EnergyPlus, Version 9.2.0-921312fa1d, YMD=2020.12.22 18:42
1,5,Environment Title[],Latitude[deg],Longitude[deg],Time Zone[],Elevation[m]
2,8,Day of Simulation[],Month[],Day of Month[],DST Indicator[1=yes 0=no],Hour[],StartMinute[],EndMinute[],DayType
3,5,Cumulative Day of Simulation[],Month[],Day of Month[],DST Indicator[1=yes 0=no],DayType  ! When Daily Meters Requested
4,2,Cumulative Days of Simulation[],Month[]  ! When Monthly Meters Requested
5,1,Cumulative Days of Simulation[] ! When Run Period Meters Requested
6,1,Calendar Year of Simulation[] ! When Annual Meters Requested
9,1,Electricity:Facility [J] !Hourly
5518,1,Heating:Electricity [J] !Hourly
5429,1,Cooling:Electricity [J] !Hourly
45,1,InteriorLights:Electricity [J] !Hourly
5313,1,ExteriorLights:Electricity [J] !Hourly
1432,1,InteriorEquipment:Electricity [J] !Hourly
5338,1,ExteriorEquipment:Electricity [J] !Hourly
5271,1,Fans:Electricity [J] !Hourly
5594,1,Pumps:Electricity [J] !Hourly
5543,1,HeatRejection:Electricity [J] !Hourly
5413,1,Humidifier:Electricity [J] !Hourly
2239,1,Refrigeration:Electricity [J] !Hourly
2105,1,Gas:Facility [J] !Hourly
5493,1,Heating:Gas [J] !Hourly
2141,1,InteriorEquipment:Gas [J] !Hourly
2421,1,WaterSystems:Gas [J] !Hourly
5467,1,HeatRejection:EnergyTransfer [J] !Hourly
2558,1,Heating:EnergyTransfer [J] !Hourly
2583,1,Cooling:EnergyTransfer [J] !Hourly
4784,1,WaterSystems:EnergyTransfer [J] !Hourly
2214,1,Refrigeration:EnergyTransfer [J] !Hourly
5049,1,HeatingCoils:EnergyTransfer [J] !Hourly
5203,1,CoolingCoils:EnergyTransfer [J] !Hourly
End of Data Dictionary
1,RUNPERIOD 1,  41.98, -87.92,  -6.00, 201.00
2,1, 1, 1, 0, 1, 0.00,60.00,Holiday
9,1635488754.2469755
45,125861959.54202403
1432,407926009.7788609
2105,2957680786.870211
2141,20392811.859456
2214,36625752.92385204
2239,15250252.464691263
2421,31459635.10941953
2558,205622286.54849036
2583,385546069.58547499
4784,49026750.87636518
5049,2313781889.9248898
5203,150317195.17183698
5271,347113696.8653309
5313,55472400.0
5338,117333098.90109866
5413,353441441.6039336
5429,75119676.33882465
5467,399414814.73672917
5493,2905828339.9013359
5518,0.0
5543,985437.0934981904
5594,136984781.65871365
2,1, 1, 1, 0, 2, 0.00,60.00,Holiday
9,1634638437.0609487
45,125861959.54202403
1432,407926009.7788609
2105,3408961595.058966
2141,20392811.859456
2214,35851709.22497881
2239,15117382.54718497
2421,62866153.420763988
2558,232361074.8401961
2583,372095348.52149096
4784,49026787.05266326
5049,2630167881.25237
5203,64601138.39076466
5271,347113696.8653309
5313,55472400.0
5338,117333098.90109866
5413,394943513.50466886
5429,34215644.09536038
5467,181509109.27407275
5493,3325702629.778746
5518,0.0
5543,0.0
5594,136654731.82642044
2,1, 1, 1, 0, 3, 0.00,60.00,Holiday
9,1630720242.9933134
45,125861959.54202403
1432,407926009.7788609
2105,3368201347.018734
2141,20392811.859456
2214,35718224.60270798
2239,15093806.519543954
2421,62865549.7551631
2558,238300825.3116556
2583,363836643.4609151
4784,49026996.83958144
5049,2598072379.5814955
5203,75903145.13434428
5271,347113696.8653309
5313,55472400.0
5338,117333098.90109866
5413,388417734.95107188
5429,36746017.0052651
5467,195005383.1324507
5493,3284942985.4041149
5518,0.0
5543,0.0
5594,136755519.43011827
2,1, 1, 1, 0, 4, 0.00,60.00,Holiday
9,1629000885.2709077
45,125861959.54202403
1432,407926009.7788609
2105,3367618305.8186547
2141,20392811.859456
2214,35712370.27304374
2239,15092321.03504694
2421,62864947.19415792
2558,248407586.1615687
2583,355661258.69085499
4784,49027181.707004878
5049,2597337397.3073337
5203,80258863.24942202
5271,347113696.8653309
5313,55472400.0
5338,117333098.90109866
5413,385306799.0154083
5429,38039566.88871079
5467,201769681.65923596
5493,3284360546.7650406
5518,0.0
5543,0.0
5594,136855033.2444277
2,1, 1, 1, 0, 5, 0.00,60.00,Holiday
9,1661921758.5388146
45,160177558.76072649
1432,407926009.7788609
2105,3337080129.372349
2141,20392811.859456
2214,45588554.045256149
2239,17405429.152698768
2421,62864345.204948868
2558,247544450.06845475
2583,358851358.1200222
4784,49027343.296678509
5049,2574839968.9445736
5203,88491191.4856479
5271,347113696.8653309
5313,55472400.0
5338,117333098.90109866
5413,378389125.16339007
5429,41245437.629873219
5467,218795779.2195506
5493,3253822972.3079445
5518,0.0
5543,0.0
5594,136859002.28683508
2,1, 1, 1, 0, 6, 0.00,60.00,Holiday
9,1664348680.4948328
45,160177558.76072649
1432,407926009.7788609
2105,3360725005.359423
2141,50982029.64864
2214,44956565.13083042
2239,17257558.58902313
2421,62863743.79085131
2558,253931555.79197575
2583,356716609.59706249
4784,49027481.61213577
5049,2568114232.4856069
5203,93723638.4100239
5271,347113696.8653309
5313,55472400.0
5338,117333098.90109866
5413,378313987.3843258
5429,43825817.20292878
5467,232504647.55939616
5493,3246879231.9199316
5518,0.0
5543,0.0
5594,136928553.012538
2,1, 1, 1, 0, 7, 0.00,60.00,Holiday
9,1934923771.567016
45,194493157.97942875
1432,636801372.8715168
2105,3285684278.1817605
2141,101964059.29728
2214,46080463.86291471
2239,17301864.22652662
2421,62867019.0291585
2558,205924848.8809741
2583,425326112.3994504
4784,49027615.18511136
5049,2477141230.30892
5203,99564195.56407225
5271,347113696.8653309
5313,55472400.0
5338,117333098.90109866
5413,383641313.3107352
5429,46435289.604633208
5467,246541838.33586277
5493,3120853199.855322
5518,0.0
5543,0.0
5594,136331577.80774559
2,1, 1, 1, 0, 8, 0.00,60.00,Holiday
9,1917500566.774003
45,194493157.97942875
1432,663791564.0523169
2105,3266361875.1732656
2141,152946088.94592
2214,42808923.30396263
2239,16432655.772373569
2421,62862546.72242476
2558,198998034.3650567
2583,454317332.52086868
4784,49027672.54667109
5049,2414325220.792326
5203,109537252.28985209
5271,347113696.8653309
5313,13868100.0
5338,117333098.90109866
5413,377344063.63945797
5429,50877059.630589779
5467,269829931.9203468
5493,3050553239.504921
5518,0.0
5543,0.0
5594,136247169.93340645
2,1, 1, 1, 0, 9, 0.00,60.00,Holiday
9,2195733032.7987077
45,234566119.47469674
1432,792155392.2367202
2105,3089413406.4490334
2141,203928118.59456
2214,43316693.74746768
2239,16657892.521623102
2421,94763912.96016278
2558,159740848.1889796
2583,550514806.5102773
4784,65324637.22561097
5049,2211860394.973775
5203,130243128.86580637
5271,347113696.8653309
5313,0.0
5338,234666197.8021973
5413,375082399.1281671
5429,59776229.900774259
5467,317474539.39696189
5493,2790721374.8943107
5518,0.0
5543,0.0
5594,135715104.86919806
2,1, 1, 1, 0,10, 0.00,60.00,Holiday
9,2185672429.2494337
45,234566119.47469674
1432,765165201.0559201
2105,2803892623.8299725
2141,152946088.94592
2214,43901556.87716005
2239,16754809.741898859
2421,95274014.8994723
2558,139443351.00175593
2583,584619474.328999
4784,81621465.61861596
5049,2019128985.9069517
5203,172164089.65289439
5271,347113696.8653309
5313,0.0
5338,234666197.8021973
5413,373106580.22534289
5429,78565970.44794932
5467,417158642.8380136
5493,2555672519.9845798
5518,0.0
5543,0.0
5594,135733853.63609717
2,1, 1, 1, 0,11, 0.00,60.00,Holiday
9,2228241622.0928995
45,234566119.47469674
1432,792155392.2367202
2105,2710626221.3518388
2141,254910148.24319998
2214,43466725.54218493
2239,16684249.395244291
2421,127721065.90113592
2558,124750714.20731399
2583,628969988.3620384
4784,97919775.00889707
5049,1837826205.8330408
5203,238423827.90254043
5271,347113696.8653309
5313,0.0
5338,234666197.8021973
5413,355210038.7627613
5429,111087944.94259262
5467,591040106.8767278
5493,2327995007.2075026
5518,0.0
5543,399684.77236576049
5594,136358297.84099008
2,1, 1, 1, 0,12, 0.00,60.00,Holiday
9,2242668716.3047187
45,234566119.47469674
1432,792155392.2367202
2105,2537708873.5979516
2141,254910148.24319998
2214,48846812.33323131
2239,21443215.611620536
2421,127707690.32735729
2558,112574076.76228339
2583,650432596.798494
4784,97919783.93406214
5049,1701070581.390129
5203,304205440.9527233
5271,347113696.8653309
5313,0.0
5338,234666197.8021973
5413,328832478.8495029
5429,141187446.41327078
5467,752402213.8030566
5493,2155091035.027395
5518,0.0
5543,5721134.03312661
5594,136983035.01825295
2,1, 1, 1, 0,13, 0.00,60.00,Holiday
9,2247253730.3267924
45,234566119.47469674
1432,792155392.2367202
2105,2433846493.769128
2141,254910148.24319998
2214,42754742.97175129
2239,16570789.025524944
2421,127693932.61692569
2558,105400203.92137477
2583,644535499.726938
4784,97919768.57174424
5049,1619805839.7963639
5203,355633930.5861361
5271,347113696.8653309
5313,0.0
5338,234666197.8021973
5413,308398614.4910968
5429,165314824.16022343
5467,881457080.8269024
5493,2051242412.9090019
5518,0.0
5543,10966201.263843827
5594,137501895.0071581
2,1, 1, 1, 0,14, 0.00,60.00,Holiday
9,2231883931.1771438
45,234566119.47469674
1432,765165201.0559201
2105,2300485952.5281865
2141,203928118.59456
2214,44727002.62318728
2239,16899799.21758348
2421,127680211.15917427
2558,97253974.32982518
2583,635691210.6812302
4784,97919724.4859643
5049,1554890359.2678207
5203,398678849.3711324
5271,347113696.8653309
5313,0.0
5338,234666197.8021973
5413,294144073.9978405
5429,185351159.43020536
5467,988738898.0090393
5493,1968877622.774452
5518,0.0
5543,16064988.307102789
5594,137912695.02626647
2,1, 1, 1, 0,15, 0.00,60.00,Holiday
9,2232244389.0846326
45,234566119.47469674
1432,765165201.0559201
2105,2208215169.4054868
2141,152946088.94592
2214,45305799.14149977
2239,16995851.721777448
2421,127666526.47220302
2558,89314552.01510398
2583,637324898.8430283
4784,97919651.43344635
5049,1525041667.9581238
5203,415428771.44777479
5271,347113696.8653309
5313,0.0
5338,234666197.8021973
5413,283148428.8184261
5429,193874087.91786767
5467,1034398903.072302
5493,1927602553.9873639
5518,0.0
5543,18666029.80122388
5594,138048775.62719248
2,1, 1, 1, 0,16, 0.00,60.00,Holiday
9,2218167039.4164698
45,234566119.47469674
1432,765165201.0559201
2105,2228722920.084158
2141,203928118.59456
2214,44825829.4812119
2239,16917353.866311924
2421,95808348.4616181
2558,87576140.73919119
2583,637359025.8736307
4784,97919228.60202527
5049,1525389136.939515
5203,415441798.12385818
5271,347113696.8653309
5313,0.0
5338,234666197.8021973
5413,268171972.45428605
5429,194006210.5304023
5467,1035106915.210974
5493,1928986453.0279799
5518,0.0
5543,19499193.48815636
5594,138061093.87916798
2,1, 1, 1, 0,17, 0.00,60.00,Holiday
9,2162945314.3205626
45,234566119.47469674
1432,792155392.2367202
2105,2361024821.460489
2141,305892177.89184
2214,40107595.79847103
2239,15997413.25133772
2421,127741064.58800134
2558,88460963.83966565
2583,644392993.3145549
4784,97919739.48585147
5049,1523911171.9933758
5203,416081138.9593034
5271,347113696.8653309
5313,41604300.0
5338,117333098.90109866
5413,261893519.93110765
5429,194285857.46927095
5467,1036605495.9185104
5493,1927391578.9806476
5518,0.0
5543,19907733.161570386
5594,138088183.02942903
2,1, 1, 1, 0,18, 0.00,60.00,Holiday
9,2002875663.5609365
45,194493157.97942875
1432,663791564.0523169
2105,2475750549.5280907
2141,305892177.89184
2214,40614988.784673649
2239,16084941.317517337
2421,127003279.16789954
2558,107602516.87020198
2583,592848767.837595
4784,81622261.99956206
5049,1614261045.3090988
5203,402452839.9646601
5271,347113696.8653309
5313,55472400.0
5338,117333098.90109866
5413,263742864.69622008
5429,188373883.63216133
5467,1004929162.765704
5493,2042855092.4683512
5518,0.0
5543,18183849.004497019
5594,138286207.11236543
2,1, 1, 1, 0,19, 0.00,60.00,Holiday
9,1879921873.119009
45,160177558.76072649
1432,588435533.5237343
2105,2504707665.5463955
2141,305892177.89184
2214,40699558.3373944
2239,16099452.079230017
2421,48675921.425515297
2558,117464437.00170434
2583,531916703.6571246
4784,49026587.36104432
5049,1698258016.4301143
5203,373552979.48973247
5271,347113696.8653309
5313,55472400.0
5338,117333098.90109866
5413,266543813.785245
5429,175267909.84787617
5467,934737240.2310097
5493,2150139566.22904
5518,0.0
5543,15202586.168090102
5594,138275823.1876775
2,1, 1, 1, 0,20, 0.00,60.00,Holiday
9,1850039159.7741745
45,160177558.76072649
1432,561445342.3429346
2105,2378695324.9223535
2141,203928118.59456
2214,50010490.55835559
2239,18315533.33188977
2421,45640666.33268894
2558,122006186.44869508
2583,516479595.92077228
4784,49026664.62359284
5049,1681070342.763267
5203,387232136.24308559
5271,347113696.8653309
5313,55472400.0
5338,117333098.90109866
5413,254386349.38167275
5429,180149321.83067877
5467,960876584.2014171
5493,2129126539.9951044
5518,0.0
5543,17229193.745512479
5594,138416664.6143305
2,1, 1, 1, 0,21, 0.00,60.00,Holiday
9,1715854195.262858
45,160177558.76072649
1432,448411296.5500608
2105,2446455194.4002745
2141,203928118.59456
2214,49072077.75583212
2239,18115012.833740895
2421,62866838.16667117
2558,139052575.4485817
2583,469229751.6043134
4784,49027216.545080747
5049,1722204517.9513355
5203,377801578.7835497
5271,347113696.8653309
5313,55472400.0
5338,117333098.90109866
5413,236282594.75677655
5429,176971124.62266926
5467,943856345.8542391
5493,2179660237.639043
5518,0.0
5543,17393374.37762827
5594,138584037.59482599
2,1, 1, 1, 0,22, 0.00,60.00,Holiday
9,1710582101.2451189
45,160177558.76072649
1432,448411296.5500608
2105,2403563319.9831125
2141,152946088.94592
2214,44511382.707464117
2239,17048779.700147168
2421,62865335.832970309
2558,145304279.22386716
2583,455946199.2532537
4784,49027065.078307319
5049,1728546928.6470268
5203,379312412.0840607
5271,347113696.8653309
5313,55472400.0
5338,117333098.90109866
5413,231620152.09614033
5429,176873551.4438969
5467,943332130.8560331
5493,2187751895.2042219
5518,0.0
5543,17898168.689320737
5594,138633398.2383966
2,1, 1, 1, 0,23, 0.00,60.00,Holiday
9,1671778368.5860427
45,125861959.54202403
1432,448411296.5500608
2105,2398376157.6168668
2141,101964059.29728
2214,37306430.354737479
2239,15367018.233141888
2421,62864733.45847821
2558,160307971.99145509
2583,429484571.0826043
4784,49027241.72973622
5049,1766593836.5444675
5203,367741518.50192007
5271,347113696.8653309
5313,55472400.0
5338,117333098.90109866
5413,234254101.83191679
5429,172366204.46509306
5467,919200408.1464865
5493,2233547364.8611085
5518,0.0
5543,16908899.182748766
5594,138689693.01462747
2,1, 1, 1, 0,24, 0.00,60.00,Holiday
9,1678718590.8215376
45,125861959.54202403
1432,448411296.5500608
2105,2386522650.8347275
2141,50982029.64864
2214,43212575.8360299
2239,20192129.921576378
2421,62864131.67369212
2558,167736667.17162044
2583,414448913.96214279
4784,49027395.04180349
5049,1797678290.0109816
5203,355128167.48580208
5271,347113696.8653309
5313,55472400.0
5338,117333098.90109866
5413,244907541.34582288
5429,166026905.8693764
5467,885264445.227282
5493,2272676489.512395
5518,0.0
5543,14789372.48305107
5594,138610189.34319673
2,2, 1, 2, 0, 1, 0.00,60.00,Monday
9,1651234291.7988127
45,165934921.03729213
1432,407926009.7788609
2105,2485574355.231084
2141,20392811.859456
2214,37108834.66063128
2239,15470174.018096773
2421,62865215.41112593
2558,173888511.08696933
2583,395509795.17790409
4784,49116967.458081919
5049,1905470417.2973676
5203,299847715.049384
5271,347113696.8653309
5313,55472400.0
5338,117333098.90109866
5413,253576364.43882007
5429,141446136.16045184
5467,753791970.4056928
5493,2402316327.9605019
5518,0.0
5543,8863590.75863837
5594,138097899.84022326
2,2, 1, 2, 0, 2, 0.00,60.00,Monday
9,1645063231.1399654
45,165934921.03729213
1432,407926009.7788609
2105,2519679713.870495
2141,20392811.859456
2214,36952672.9987017
2239,15443370.024815847
2421,62864942.45113183
2558,179579610.75235803
2583,386750134.1935669
4784,49117056.26267223
5049,1925045572.0174123
5203,292409198.7055829
5271,347113696.8653309
5313,55472400.0
5338,117333098.90109866
5413,253360173.83216504
5429,136623522.0170178
5467,727999448.7837353
5493,2436421959.5599076
5518,0.0
5543,7797944.338820497
5594,138058094.34456355
2,2, 1, 2, 0, 3, 0.00,60.00,Monday
9,1652038702.2357445
45,165934921.03729213
1432,407926009.7788609
2105,2519965620.649088
2141,20392811.859456
2214,36915697.06211552
2239,15437029.147065245
2421,62864457.09161182
2558,184569022.142748
2583,379526542.2507949
4784,49117119.823641259
5049,1928345850.71111
5203,295091816.69560447
5271,347113696.8653309
5313,55472400.0
5338,117333098.90109866
5413,258457701.9837584
5429,138231252.4920065
5467,736591019.2231703
5493,2436708351.69802
5518,0.0
5543,8006673.942350568
5594,138125918.08798144
2,2, 1, 2, 0, 4, 0.00,60.00,Monday
9,1650121304.286755
45,165934921.03729213
1432,407926009.7788609
2105,2520534558.0822665
2141,20392811.859456
2214,36863734.69823314
2239,15428143.632681977
2421,62863971.018187519
2558,187409054.2438481
2583,373491285.5968654
4784,49117127.80549508
5049,1926978896.7817488
5203,298198574.31560507
5271,347113696.8653309
5313,55472400.0
5338,117333098.90109866
5413,255008689.89268676
5429,139357064.41312868
5467,742609017.071481
5493,2437277775.204623
5518,0.0
5543,8370596.807559518
5594,138176682.95811577
2,2, 1, 2, 0, 5, 0.00,60.00,Monday
9,1987779216.6638084
45,360542366.23706647
1432,536289837.963264
2105,2287826365.962496
2141,20392811.859456
2214,46812367.532979089
2239,17753905.42295421
2421,62866129.4660555
2558,142684541.79796268
2583,447058393.1166359
4784,49117062.220557
5049,1743097247.4713722
5203,349640556.1865083
5271,347113696.8653309
5313,55472400.0
5338,117333098.90109866
5413,238639612.9625286
5429,162295403.03930078
5467,865303996.490582
5493,2204567424.6369845
5518,0.0
5543,14136817.077967253
5594,138202078.19429789
2,2, 1, 2, 0, 6, 0.00,60.00,Monday
9,2006015799.2973386
45,360542366.23706647
1432,539619837.963264
2105,3286678590.5390989
2141,50982029.64864
2214,50367354.95837421
2239,18311434.643842617
2421,62871852.29876666
2558,684632801.2336927
2583,300701209.3720809
4784,49117094.70472729
5049,2499736968.925214
5203,375456497.8229313
5271,347113696.8653309
5313,55472400.0
5338,117333098.90109866
5413,232161925.80176164
5429,175247594.47493447
5467,934625070.9935899
5493,3172824708.5916926
5518,0.0
5543,17638103.555479349
5594,142575340.8545607
2,2, 1, 2, 0, 7, 0.00,60.00,Monday
9,2857438991.4912974
45,635295734.4273765
1432,1089404771.5169283
2105,2818269856.515132
2141,101964059.29728
2214,53093140.14867052
2239,18625362.854760685
2421,62869420.31043084
2558,369181589.51884797
2583,441030630.80462089
4784,49117114.40753925
5049,2108872776.8250719
5203,408381631.3443137
5271,347113696.8653309
5313,55472400.0
5338,117333098.90109866
5413,242943990.68183924
5429,190222959.19339303
5467,1014837313.754871
5493,2653436376.9074218
5518,0.0
5543,20609572.748275974
5594,140417404.3022946
2,2, 1, 2, 0, 8, 0.00,60.00,Monday
9,3266721428.050248
45,875733503.3989847
1432,1116394962.6977282
2105,2670636706.6389777
2141,152946088.94592
2214,52253106.69334522
2239,19284769.252895699
2421,127107531.97170632
2558,235253069.24845279
2583,534393831.7705364
4784,83944542.6348402
5049,1893974947.0087834
5203,422143209.3092307
5271,347113696.8653309
5313,13868100.0
5338,293332747.2527466
5413,242121920.5509631
5429,196999532.2059449
5467,1051148598.4339862
5493,2390583085.7213518
5518,0.0
5543,22155843.7435444
5594,139716352.0821101
2,2, 1, 2, 0, 9, 0.00,60.00,Monday
9,3403877074.9270198
45,875733503.3989847
1432,1116394962.6977282
2105,2584970538.9814417
2141,203928118.59456
2214,54647538.27686988
2239,20793396.381393844
2421,127868794.53147614
2558,174901406.67809118
2583,584817351.8844103
4784,102575897.8260977
5049,1781904874.228511
5203,439442151.0557531
5271,347113696.8653309
5313,0.0
5338,439999120.87911996
5413,234651791.21241949
5429,204691133.42835195
5467,1092379902.7701047
5493,2253173625.855405
5518,0.0
5543,24934693.610076757
5594,139564776.45361454
2,2, 1, 2, 0,10, 0.00,60.00,Monday
9,3532708811.4784905
45,875733503.3989847
1432,1089404771.5169283
2105,2441562950.0055515
2141,152946088.94592
2214,55312205.16290506
2239,20942982.104914868
2421,128512951.4679527
2558,133258670.58726748
2583,623862331.5882673
4784,116724335.31246075
5049,1709503457.3301893
5203,464543624.3296937
5271,347113696.8653309
5313,0.0
5338,586665494.5054932
5413,227704165.16935543
5429,216262188.98762448
5467,1154431738.4684149
5493,2160103909.5916788
5518,0.0
5543,29270203.847888709
5594,139611805.0819705
2,2, 1, 2, 0,11, 0.00,60.00,Monday
9,3582264548.2748048
45,875733503.3989847
1432,1116394962.6977282
2105,2495997828.0156109
2141,254910148.24319998
2214,54826024.86730975
2239,20957384.11857839
2421,194182299.10029925
2558,106599029.74420117
2583,694451080.6129925
4784,137946780.6620962
5049,1620664568.8067137
5203,501747121.70478746
5271,347113696.8653309
5313,0.0
5338,586665494.5054932
5413,226721670.23338823
5429,233149050.69827394
5467,1245049540.8884066
5493,2046905380.6721116
5518,0.0
5543,35807648.69572911
5594,139721137.061299
2,2, 1, 2, 0,12, 0.00,60.00,Monday
9,3594638467.064393
45,875733503.3989847
1432,1116394962.6977282
2105,2371831438.895651
2141,254910148.24319998
2214,59824838.097684297
2239,25593370.261287344
2421,162210953.507466
2558,83471089.7429057
2583,752811989.5835726
4784,145020844.66960938
5049,1546265637.4813064
5203,518990664.01025757
5271,347113696.8653309
5313,0.0
5338,586665494.5054932
5413,221877831.04701738
5429,241802844.33754254
5467,1291507922.961858
5493,1954710337.1449848
5518,0.0
5543,39805982.20681187
5594,139650781.74419803
2,2, 1, 2, 0,13, 0.00,60.00,Monday
9,3434023849.5700705
45,875733503.3989847
1432,1116394962.6977282
2105,2293468302.3406536
2141,254910148.24319998
2214,53751282.763301078
2239,20822668.424137519
2421,161143091.9298801
2558,63892675.9901368
2583,802451686.506793
4784,125567050.97815578
5049,1484329767.451582
5203,519423887.3447139
5271,347265088.2495165
5313,0.0
5338,439999120.87911996
5413,211053869.62025378
5429,242088531.68501468
5467,1293042072.6415184
5493,1877415062.1675735
5518,0.0
5543,41231565.372776489
5594,139434539.2425394
2,2, 1, 2, 0,14, 0.00,60.00,Monday
9,3484129606.8937475
45,875733503.3989847
1432,1089404771.5169283
2105,2235660203.5266635
2141,203928118.59456
2214,55713659.204447
2239,21040617.123778069
2421,194651275.68416266
2558,51271439.45280237
2583,831060543.866724
4784,145020851.46581144
5049,1452146389.940149
5203,475877835.70101848
5271,347681567.97772499
5313,0.0
5338,586665494.5054932
5413,163542548.24363626
5429,223105354.1917265
5467,1191152098.025114
5493,1837080809.2479404
5518,0.0
5543,38094638.87913294
5594,138861111.05634327
2,2, 1, 2, 0,15, 0.00,60.00,Monday
9,3438007204.8226807
45,875733503.3989847
1432,1089404771.5169283
2105,2115838076.0741349
2141,152946088.94592
2214,56498648.384169269
2239,21107141.17769663
2421,161821954.82310183
2558,41669831.82243647
2583,858038009.8727821
4784,137946879.95955576
5049,1423838129.9180876
5203,436035202.2887919
5271,348065078.1017598
5313,0.0
5338,586665494.5054932
5413,142422764.92322336
5429,204072984.22359134
5467,1089065693.7837723
5493,1801070032.3051134
5518,0.0
5543,32220894.800251973
5594,138314572.17475183
2,2, 1, 2, 0,16, 0.00,60.00,Monday
9,3448476973.838409
45,875733503.3989847
1432,1089404771.5169283
2105,2130991958.6374078
2141,203928118.59456
2214,55991560.83903448
2239,21047065.119262835
2421,161432470.22664608
2558,33146173.41549646
2583,885393038.5463548
4784,130872706.86985505
5049,1395298531.130552
5203,457227955.21569827
5271,348407901.31029376
5313,0.0
5338,586665494.5054932
5413,139616545.53510089
5429,212592559.12305955
5467,1134752276.872242
5493,1765631369.8162018
5518,0.0
5543,36505332.15987534
5594,138503801.1694113
2,2, 1, 2, 0,17, 0.00,60.00,Monday
9,3520009361.401768
45,875733503.3989847
1432,1116394962.6977282
2105,2195988760.601177
2141,305892177.89184
2214,48059909.06884098
2239,18106732.875086734
2421,160385217.59518985
2558,27660419.413012826
2583,917224291.8214183
4784,111418659.91398198
5049,1365839309.4143482
5203,475212840.8457812
5271,348709261.89267638
5313,41604300.0
5338,586665494.5054932
5413,130855325.3718665
5429,221562949.6793505
5467,1182867276.615901
5493,1729711365.1141473
5518,0.0
5543,41711758.89653343
5594,138665072.08404906
2,2, 1, 2, 0,18, 0.00,60.00,Monday
9,3513371079.0122969
45,875733503.3989847
1432,1116394962.6977282
2105,2077388612.6413849
2141,305892177.89184
2214,48275801.335336718
2239,18090615.442955514
2421,63349360.24504866
2558,22829173.935432629
2583,934572769.5037443
4784,72510332.82962904
5049,1350516648.7297352
5203,446316552.9571405
5271,349006377.09160366
5313,55472400.0
5338,586665494.5054932
5413,128697134.58340782
5429,209081495.00224493
5467,1115923111.0871225
5493,1708147074.504496
5518,0.0
5543,35975607.088121797
5594,138253489.20175783
2,2, 1, 2, 0,19, 0.00,60.00,Monday
9,2550390917.5982139
45,600980135.2086742
1432,716799361.7081372
2105,1764673885.4589079
2141,305892177.89184
2214,47887920.113252568
2239,18040513.225673267
2421,94595891.65105224
2558,9312931.790005099
2583,1048828833.2183571
4784,59589690.42212428
5049,1070228552.3108815
5203,447662789.6942293
5271,347113696.8653309
5313,55472400.0
5338,305066057.1428565
5413,123765185.19368515
5429,208423270.40602
5467,1112392454.4154988
5493,1364185815.9160157
5518,0.0
5543,37266769.564816858
5594,137463528.28301905
2,2, 1, 2, 0,20, 0.00,60.00,Monday
9,2546146086.24887
45,600980135.2086742
1432,689809170.5273374
2105,1624635413.392017
2141,203928118.59456
2214,56789837.27440546
2239,20257561.43359504
2421,63079961.88924226
2558,9441429.087322047
2583,998768799.0205428
4784,59589114.46487101
5049,1074334791.4829078
5203,474174129.3540483
5271,347113696.8653309
5313,55472400.0
5338,305066057.1428565
5413,124861191.20216498
5429,220744047.2847142
5467,1178474343.360741
5493,1357627332.9082149
5518,0.0
5543,44045880.42771547
5594,137795946.15648128
2,2, 1, 2, 0,21, 0.00,60.00,Monday
9,2057586804.7839313
45,360542366.23706647
1432,448411296.5500608
2105,1767834864.7072325
2141,203928118.59456
2214,55267211.69860461
2239,20015251.057282606
2421,94587071.75397673
2558,18311842.904439484
2583,871859073.8189296
4784,59589294.88864111
5049,1160375750.0811949
5203,485394606.260104
5271,347113696.8653309
5313,55472400.0
5338,305066057.1428565
5413,105907396.28139055
5429,226085224.3905975
5467,1207133357.1337484
5493,1469319674.358696
5518,0.0
5543,50654819.38038055
5594,138318296.8789657
2,2, 1, 2, 0,22, 0.00,60.00,Monday
9,1917079478.0242112
45,360542366.23706647
1432,448411296.5500608
2105,1709673626.848855
2141,152946088.94592
2214,49962761.02500603
2239,18867256.709760127
2421,62883156.85987837
2558,21480180.973905319
2583,835658438.6342905
4784,50339358.65547497
5049,1182270368.1707769
5203,501496033.31451067
5271,347113696.8653309
5313,55472400.0
5338,164266338.4615381
5413,90726971.46105412
5429,233425194.81218017
5467,1246528561.4593902
5493,1493844381.0430568
5518,0.0
5543,59707750.794140998
5594,138546206.1330798
2,2, 1, 2, 0,23, 0.00,60.00,Monday
9,1653853060.532819
45,165934921.03729213
1432,448411296.5500608
2105,1740761962.8226953
2141,101964059.29728
2214,42192192.97503032
2239,16968030.780045667
2421,62858081.77638818
2558,33486507.01119675
2583,775626448.276159
4784,49116857.11442117
5049,1249857464.8612586
5203,450192446.74020788
5271,347113696.8653309
5313,55472400.0
5338,117333098.90109866
5413,108925002.14267425
5429,211561360.66395725
5467,1129235113.1556113
5493,1575939821.749027
5518,0.0
5543,43964030.696321409
5594,138169222.89603824
2,2, 1, 2, 0,24, 0.00,60.00,Monday
9,1638122336.2226494
45,165934921.03729213
1432,448411296.5500608
2105,1772105414.4988876
2141,50982029.64864
2214,46266201.518598977
2239,20836976.646055547
2421,62857603.961563888
2558,43460798.48066573
2583,741505773.78637
4784,49116786.279800299
5049,1311964121.0661503
5203,413944055.2468691
5271,347113696.8653309
5313,55472400.0
5338,117333098.90109866
5413,118102047.67630789
5429,193471308.0676179
5467,1032240549.3865148
5493,1658265780.8886839
5518,0.0
5543,33572799.880134139
5594,137873790.5987515
2,3, 1, 3, 0, 1, 0.00,60.00,Tuesday
9,1588044458.507476
45,165934921.03729213
1432,407926009.7788609
2105,1777495801.9312819
2141,20392811.859456
2214,39335663.65143352
2239,15849191.940166614
2421,62859464.75518493
2558,50673797.007069
2583,707106081.1016533
4784,49204597.0446668
5049,1341299288.7807096
5203,411383670.07006588
5271,347113696.8653309
5313,55472400.0
5338,117333098.90109866
5413,115066596.50590767
5429,192125424.34370027
5467,1025028596.446331
5493,1694243525.3166409
5518,0.0
5543,33294760.19148439
5594,137928358.94363476
2,3, 1, 3, 0, 2, 0.00,60.00,Tuesday
9,1586606426.754446
45,165934921.03729213
1432,407926009.7788609
2105,1817326600.2091127
2141,20392811.859456
2214,38520378.49782498
2239,15711510.42091169
2421,62858630.923756647
2558,58057626.75878888
2583,675782013.1689072
4784,49204430.11310918
5049,1372207049.8992403
5203,409507883.72444799
5271,347113696.8653309
5313,55472400.0
5338,117333098.90109866
5413,114758359.94837545
5429,191244735.16066069
5467,1020309649.8178812
5493,1734075157.4259
5518,0.0
5543,33111738.753927828
5594,137999955.8879878
2,3, 1, 3, 0, 3, 0.00,60.00,Tuesday
9,1593778920.827759
45,165934921.03729213
1432,407926009.7788609
2105,1840390688.883521
2141,20392811.859456
2214,38242365.13080746
2239,15703253.464983553
2421,62858269.29298434
2558,67360817.00601757
2583,647623917.5300747
4784,49204379.94853082
5049,1389734873.4157632
5203,422529885.1199922
5271,347113696.8653309
5313,55472400.0
5338,117333098.90109866
5413,113140304.60210105
5429,196887706.0388182
5467,1050550154.2319602
5493,1757139607.7310808
5518,0.0
5543,36042228.45065512
5594,138225301.68861885
2,3, 1, 3, 0, 4, 0.00,60.00,Tuesday
9,1605719151.7034579
45,165934921.03729213
1432,407926009.7788609
2105,1882849074.702093
2141,20392811.859456
2214,38188210.686708468
2239,15678533.915407552
2421,62857908.115524459
2558,75812902.80864193
2583,622503060.8820336
4784,49204329.31967825
5049,1425539492.3269432
5203,416381476.60570719
5271,347113696.8653309
5313,55472400.0
5338,117333098.90109866
5413,130264782.47850347
5429,194725688.6696305
5467,1038963487.5575764
5493,1799598354.7271124
5518,0.0
5543,33025421.530451739
5594,138244598.5268821
2,3, 1, 3, 0, 5, 0.00,60.00,Tuesday
9,1954926564.4520105
45,360542366.23706647
1432,536289837.963264
2105,1857496559.9761029
2141,20392811.859456
2214,87919776.0618547
2239,27312298.386983046
2421,62858023.93199563