Program Version,EnergyPlus, Version 9.2.0-921312fa1d, YMD=2020.12.22 17:57
1,5,Environment Title[],Latitude[deg],Longitude[deg],Time Zone[],Elevation[m]
2,8,Day of Simulation[],Month[],Day of Month[],DST Indicator[1=yes 0=no],Hour[],StartMinute[],EndMinute[],DayType
3,5,Cumulative Day of Simulation[],Month[],Day of Month[],DST Indicator[1=yes 0=no],DayType  ! When Daily Report Variables Requested
4,2,Cumulative Days of Simulation[],Month[]  ! When Monthly Report Variables Requested
5,1,Cumulative Days of Simulation[] ! When Run Period Report Variables Requested
6,1,Calendar Year of Simulation[] ! When Annual Report Variables Requested
303,1,BULKSTORAGE,Zone Thermostat Heating Setpoint Temperature [C] !Hourly
304,1,BULKSTORAGE,Zone Thermostat Cooling Setpoint Temperature [C] !Hourly
343,1,FINESTORAGE,Zone Thermostat Heating Setpoint Temperature [C] !Hourly
344,1,FINESTORAGE,Zone Thermostat Cooling Setpoint Temperature [C] !Hourly
383,1,OFFICE,Zone Thermostat Heating Setpoint Temperature [C] !Hourly
384,1,OFFICE,Zone Thermostat Cooling Setpoint Temperature [C] !Hourly
9,1,Electricity:Facility [J] !Hourly
599,1,Heating:Electricity [J] !Hourly
659,1,Cooling:Electricity [J] !Hourly
45,1,InteriorLights:Electricity [J] !Hourly
621,1,ExteriorLights:Electricity [J] !Hourly
132,1,InteriorEquipment:Electricity [J] !Hourly
182,1,Fans:Electricity [J] !Hourly
562,1,Gas:Facility [J] !Hourly
586,1,Heating:Gas [J] !Hourly
255,1,Heating:EnergyTransfer [J] !Hourly
280,1,Cooling:EnergyTransfer [J] !Hourly
549,1,HeatingCoils:EnergyTransfer [J] !Hourly
646,1,CoolingCoils:EnergyTransfer [J] !Hourly
1385,1,FURNACE_PACU_CAV_1:1,Air System Total Heating Energy [J] !Hourly
1386,1,FURNACE_PACU_CAV_1:1,Air System Total Cooling Energy [J] !Hourly
1387,1,FURNACE_PACU_CAV_2:2,Air System Total Heating Energy [J] !Hourly
1388,1,FURNACE_PACU_CAV_2:2,Air System Total Cooling Energy [J] !Hourly
End of Data Dictionary
1,RUNPERIOD 1,  41.98, -87.92,  -6.00, 201.00
2,1, 1, 1, 0, 1, 0.00,60.00,Holiday
303,7.200000000000002
304,30.0
343,15.6
344,26.7
383,15.5
384,30.0
1385,55718087.519957277
1386,0.0
1387,445350950.7095893
1388,0.0
9,87267907.79327543
45,11542082.99495346
132,3641758.8411547804
182,32635265.957167195
255,850128606.0471861
280,0.0
549,822984083.8762295
562,1053400446.6964696
586,1053400446.6964696
599,0.0
621,39448800.0
646,0.0
659,0.0
2,1, 1, 1, 0, 2, 0.00,60.00,Holiday
303,7.2
304,30.0
343,15.6
344,26.7
383,15.5
384,30.0
1385,53206444.25765154
1386,0.0
1387,429281062.5289856
1388,0.0
9,86109193.51542259
45,11542082.99495346
132,3641758.8411547804
182,31476551.679314358
255,950510367.152157
280,0.0
549,923852756.0012037
562,1182796220.6668344
586,1182796220.6668344
599,0.0
621,39448800.0
646,0.0
659,0.0
2,1, 1, 1, 0, 3, 0.00,60.00,Holiday
303,7.200000000000002
304,30.0
343,15.6
344,26.7
383,15.5
384,30.0
1385,71193317.60049044
1386,0.0
1387,575464477.989262
1388,0.0
9,95612140.61892045
45,11542082.99495346
132,3641758.8411547804
182,40979498.78281221
255,1099252670.9174119
280,0.0
549,1067884897.5036771
562,1366901645.8100589
586,1366901645.8100589
599,0.0
621,39448800.0
646,0.0
659,0.0
2,1, 1, 1, 0, 4, 0.00,60.00,Holiday
303,7.2
304,30.0
343,15.6
344,26.7
383,15.5
384,30.0
1385,53659041.41443058
1386,0.0
1387,427879481.6786305
1388,0.0
9,86069120.81420759
45,11542082.99495346
132,3641758.8411547804
182,31436478.97809934
255,937763811.7435389
280,0.0
549,911110815.0799955
562,1166446530.1699844
586,1166446530.1699844
599,0.0
621,39448800.0
646,0.0
659,0.0
2,1, 1, 1, 0, 5, 0.00,60.00,Holiday
303,7.200000000000002
304,30.0
343,15.6
344,26.7
383,15.5
384,30.0
1385,71466057.48926014
1386,0.0
1387,573039901.4517846
1388,0.0
9,95490982.18524269
45,11542082.99495346
132,3641758.8411547804
182,40858340.349134448
255,1092813390.4914737
280,0.0
549,1061538685.1386778
562,1358757118.6222828
586,1358757118.6222828
599,0.0
621,39448800.0
646,0.0
659,0.0
2,1, 1, 1, 0, 6, 0.00,60.00,Holiday
303,7.2
304,30.0
343,15.6
344,26.7
383,15.5
384,30.0
1385,53646667.43136193
1386,0.0
1387,426252882.3887617
1388,0.0
9,85972920.51471457
45,11542082.99495346
132,3641758.8411547804
182,31340278.678606329
255,931117508.6763836
280,0.0
549,904541214.9356153
562,1158024345.0546804
586,1158024345.0546804
599,0.0
621,39448800.0
646,0.0
659,0.0
2,1, 1, 1, 0, 7, 0.00,60.00,Holiday
303,7.200000000000002
304,30.0
343,15.6
344,26.7
383,15.5
384,30.0
1385,71530435.74241899
1386,0.0
1387,572856911.9827384
1388,0.0
9,95487861.39593104
45,11542082.99495346
132,3641758.8411547804
182,40855219.55982281
255,1093963902.0022355
280,0.0
549,1062673193.8174193
562,1360209644.2042809
586,1360209644.2042809
599,0.0
621,39448800.0
646,0.0
659,0.0
2,1, 1, 1, 0, 8, 0.00,60.00,Holiday
303,7.2
304,30.0
343,15.6
344,26.7
383,15.5
384,30.0
1385,53296740.68023471
1386,0.0
1387,425156831.9379064
1388,0.0
9,59588002.312208469
45,11542082.99495346
132,3641758.8411547804
182,31254560.47610022
255,924807530.8002359
280,0.0
549,898320740.8707697
562,1150060101.008503
586,1150060101.008503
599,0.0
621,13149600.0
646,0.0
659,0.0
2,1, 1, 1, 0, 9, 0.00,60.00,Holiday
303,7.200000000000002
304,30.0
343,15.6
344,26.7
383,15.5
384,30.0
1385,67105039.162112187
1386,0.0
1387,550237570.1429108
1388,0.0
9,54468990.508726108
45,11542082.99495346
132,3641758.8411547804
182,39285148.67261787
255,1034276275.4908292
280,0.0
549,1004250652.671052
562,1285444556.5667403
586,1285444556.5667403
599,0.0
621,0.0
646,0.0
659,0.0
2,1, 1, 1, 0,10, 0.00,60.00,Holiday
303,7.2
304,30.0
343,15.6
344,26.7
383,15.5
384,30.0
1385,46776521.281292509
1386,0.0
1387,385543691.21080097
1388,0.0
9,43714499.83930362
45,11542082.99495346
132,3641758.8411547804
182,28530658.003195377
255,804942691.902678
280,0.0
549,780779215.3598931
562,999565634.719022
586,999565634.719022
599,0.0
621,0.0
646,0.0
659,0.0
2,1, 1, 1, 0,11, 0.00,60.00,Holiday
303,7.200000000000002
304,30.0
343,15.6
344,26.7
383,15.5
384,30.0
1385,56460015.29487906
1386,0.0
1387,473106976.62052837
1388,0.0
9,49373300.10383122
45,11542082.99495346
132,3641758.8411547804
182,34189458.26772298
255,843318060.349757
280,0.0
549,816916998.4140809
562,1045599397.3244622
586,1045599397.3244622
599,0.0
621,0.0
646,0.0
659,0.0
2,1, 1, 1, 0,12, 0.00,60.00,Holiday
303,7.2
304,30.0
343,15.6
344,26.7
383,15.5
384,30.0
1385,39155749.15974672
1386,0.0
1387,326039295.24133756
1388,0.0
9,39726787.450289878
45,11542082.99495346
132,3641758.8411547804
182,24542945.61418163
255,631524390.6618056
280,0.0
549,610617239.2721822
562,781642776.2222707
586,781642776.2222707
599,0.0
621,0.0
646,0.0
659,0.0
2,1, 1, 1, 0,13, 0.00,60.00,Holiday
303,7.200000000000002
304,30.0
343,15.6
344,26.7
383,15.5
384,30.0
1385,49392786.74164015
1386,0.0
1387,404349516.87414368
1388,0.0
9,44901016.843075048
45,11542082.99495346
132,3641758.8411547804
182,29717175.006966797
255,673143414.296925
280,0.0
549,650437088.1327927
562,832380173.9409206
586,832380173.9409206
599,0.0
621,0.0
646,0.0
659,0.0
2,1, 1, 1, 0,14, 0.00,60.00,Holiday
303,7.2
304,30.0
343,15.6
344,26.7
383,15.5
384,30.0
1385,35685779.44106749
1386,0.0
1387,284799573.8795958
1388,0.0
9,37018485.567676309
45,11542082.99495346
132,3641758.8411547804
182,21834643.73156806
255,507325965.7221559
280,0.0
549,488715713.16392549
562,625465097.6636837
586,625465097.6636837
599,0.0
621,0.0
646,0.0
659,0.0
2,1, 1, 1, 0,15, 0.00,60.00,Holiday
303,7.200000000000002
304,30.0
343,15.6
344,26.7
383,15.5
384,30.0
1385,45558415.67538116
1386,0.0
1387,368767879.10429206
1388,0.0
9,42568584.02306514
45,11542082.99495346
132,3641758.8411547804
182,27384742.186956899
255,580018499.3121053
280,0.0
549,558646027.825958
562,714816822.9106803
586,714816822.9106803
599,0.0
621,0.0
646,0.0
659,0.0
2,1, 1, 1, 0,16, 0.00,60.00,Holiday
303,7.2
304,30.0
343,15.6
344,26.7
383,15.5
384,30.0
1385,34841783.125530298
1386,0.0
1387,276531874.1537566
1388,0.0
9,36466132.03407435
45,11542082.99495346
132,3641758.8411547804
182,21282290.197966104
255,476528077.24786648
280,0.0
549,458261463.8303779
562,586447050.5952383
586,586447050.5952383
599,0.0
621,0.0
646,0.0
659,0.0
2,1, 1, 1, 0,17, 0.00,60.00,Holiday
303,7.200000000000002
304,30.0
343,15.6
344,26.7
383,15.5
384,30.0
1385,46418592.5438205
1386,0.0
1387,371545490.28786936
1388,0.0
9,69065138.40137005
45,11542082.99495346
132,3641758.8411547804
182,27582096.56526182
255,578660728.6862371
280,0.0
549,557172339.0592607
562,712901120.1884779
586,712901120.1884779
599,0.0
621,26299200.0
646,0.0
659,0.0
2,1, 1, 1, 0,18, 0.00,60.00,Holiday
303,7.2
304,30.0
343,15.6
344,26.7
383,15.5
384,30.0
1385,35808870.80279007
1386,0.0
1387,282356163.9524773
1388,0.0
9,76312512.81555547
45,11542082.99495346
132,3641758.8411547804
182,21679870.979447243
255,489838606.203148
280,0.0
549,471282034.81732627
562,603110456.1357724
586,603110456.1357724
599,0.0
621,39448800.0
646,0.0
659,0.0
2,1, 1, 1, 0,19, 0.00,60.00,Holiday
303,7.200000000000002
304,30.0
343,15.6
344,26.7
383,15.5
384,30.0
1385,48747554.62939951
1386,0.0
1387,388099753.26579579
1388,0.0
9,83322321.51614358
45,11542082.99495346
132,3641758.8411547804
182,28689679.680035347
255,619396813.3489776
280,0.0
549,597253485.315876
562,764215839.4252731
586,764215839.4252731
599,0.0
621,39448800.0
646,0.0
659,0.0
2,1, 1, 1, 0,20, 0.00,60.00,Holiday
303,7.2
304,30.0
343,15.6
344,26.7
383,15.5
384,30.0
1385,36606470.84083673
1386,0.0
1387,288670201.5234672
1388,0.0
9,76730526.86194563
45,11542082.99495346
132,3641758.8411547804
182,22097885.025837415
255,500303018.26433846
280,0.0
549,481501387.4937809
562,616187749.7104488
586,616187749.7104488
599,0.0
621,39448800.0
646,0.0
659,0.0
2,1, 1, 1, 0,21, 0.00,60.00,Holiday
303,7.200000000000002
304,30.0
343,15.6
344,26.7
383,15.5
384,30.0
1385,47610947.26144782
1386,0.0
1387,382684550.35207656
1388,0.0
9,82940750.29926676
45,11542082.99495346
132,3641758.8411547804
182,28308108.46315851
255,599899649.8755741
280,0.0
549,577980418.2498053
562,739541607.8130401
586,739541607.8130401
599,0.0
621,39448800.0
646,0.0
659,0.0
2,1, 1, 1, 0,22, 0.00,60.00,Holiday
303,7.2
304,30.0
343,15.6
344,26.7
383,15.5
384,30.0
1385,36141747.68551363
1386,0.0
1387,285718888.54280558
1388,0.0
9,76525450.4702357
45,11542082.99495346
132,3641758.8411547804
182,21892808.634127469
255,492800727.0768826
280,0.0
549,474135818.8043544
562,606758953.3055714
586,606758953.3055714
599,0.0
621,39448800.0
646,0.0
659,0.0
2,1, 1, 1, 0,23, 0.00,60.00,Holiday
303,7.200000000000002
304,30.0
343,15.6
344,26.7
383,15.5
384,30.0
1385,47739591.47575635
1386,0.0
1387,383770256.749552
1388,0.0
9,83008026.33181955
45,11542082.99495346
132,3641758.8411547804
182,28375384.495711328
255,602900977.1625755
280,0.0
549,580943224.430073
562,743336135.2676915
586,743336135.2676915
599,0.0
621,39448800.0
646,0.0
659,0.0
2,1, 1, 1, 0,24, 0.00,60.00,Holiday
303,7.2
304,30.0
343,15.6
344,26.7
383,15.5
384,30.0
1385,36836998.87446339
1386,0.0
1387,292162372.3938375
1388,0.0
9,76954411.1905964
45,11542082.99495346
132,3641758.8411547804
182,22321769.35448816
255,510905993.6633425
280,0.0
549,491911024.32855907
562,629526373.9567015
586,629526373.9567015
599,0.0
621,39448800.0
646,0.0
659,0.0
2,2, 1, 2, 0, 1, 0.00,60.00,Monday
303,7.200000000000002
304,30.0
343,15.6
344,26.7
383,15.5
384,30.0
1385,51211226.14221038
1386,0.0
1387,410138370.6468898
1388,0.0
9,84773144.48987697
45,11542082.99495346
132,3641758.8411547804
182,30140502.653768749
255,675020920.6572142
280,0.0
549,651794423.8199655
562,834064625.9893527
586,834064625.9893527
599,0.0
621,39448800.0
646,0.0
659,0.0
2,2, 1, 2, 0, 2, 0.00,60.00,Monday
303,7.2
304,30.0
343,15.6
344,26.7
383,15.5
384,30.0
1385,39846826.506571117
1386,0.0
1387,315228084.5491431
1388,0.0
9,78509166.82141683
45,11542082.99495346
132,3641758.8411547804
182,23876524.985308596
255,581062127.7784021
280,0.0
549,560777888.6852895
562,717724996.4236698
586,717724996.4236698
599,0.0
621,39448800.0
646,0.0
659,0.0
2,2, 1, 2, 0, 3, 0.00,60.00,Monday
303,7.200000000000002
304,30.0
343,15.6
344,26.7
383,15.5
384,30.0
1385,52399121.67286934
1386,0.0
1387,418940844.36809507
1388,0.0
9,85350921.05285545
45,11542082.99495346
132,3641758.8411547804
182,30718279.21674722
255,691357976.4358318
280,0.0
549,667786743.7395897
562,854531199.9081501
586,854531199.9081501
599,0.0
621,39448800.0
646,0.0
659,0.0
2,2, 1, 2, 0, 4, 0.00,60.00,Monday
303,7.2
304,30.0
343,15.6
344,26.7
383,15.5
384,30.0
1385,39727437.8221066
1386,0.0
1387,314126349.30605629
1388,0.0
9,78441428.82685817
45,11542082.99495346
132,3641758.8411547804
182,23808786.99074994
255,577087372.2398977
280,0.0
549,556868091.9578877
562,712716094.9094668
586,712716094.9094668
599,0.0
621,39448800.0
646,0.0
659,0.0
2,2, 1, 2, 0, 5, 0.00,60.00,Monday
303,7.200000000000002
304,30.0
343,15.6
344,26.7
383,15.5
384,30.0
1385,50170125.49468058
1386,0.0
1387,402353873.55687716
1388,0.0
9,84232724.7694847
45,11542082.99495346
132,3641758.8411547804
182,29600082.93337648
255,642051835.9334288
280,0.0
549,619459782.710933
562,792641860.0450864
586,792641860.0450864
599,0.0
621,39448800.0
646,0.0
659,0.0
2,2, 1, 2, 0, 6, 0.00,60.00,Monday
303,7.2
304,30.0
343,15.6
344,26.7
383,15.5
384,30.0
1385,36570018.96004898
1386,0.0
1387,290191320.42202869
1388,0.0
9,76826180.35394153
45,11542082.99495346
132,3641758.8411547804
182,22193538.51783331
255,502113849.3630359
280,0.0
549,483212475.8669098
562,618382569.7372993
586,618382569.7372993
599,0.0
621,39448800.0
646,0.0
659,0.0
2,2, 1, 2, 0, 7, 0.00,60.00,Monday
303,7.2
304,30.0
343,15.6
344,26.7
383,21.0
384,30.0
1385,115616095.64172836
1386,0.0
1387,434335741.9059503
1388,0.0
9,122371589.80840913
45,11542082.99495346
132,3641758.8411547804
182,67738947.9723009
255,686949847.9088785
280,0.0
549,652980049.5303193
562,833684522.9252725
586,833684522.9252725
599,0.0
621,39448800.0
646,0.0
659,0.0
2,2, 1, 2, 0, 8, 0.00,60.00,Monday
303,7.2
304,24.0
343,15.6
344,26.7
383,21.0
384,24.0
1385,93928176.34425652
1386,0.0
1387,378040210.70276996
1388,0.0
9,145265674.1578886
45,46168331.97981384
132,18208794.2057739
182,67738947.97230089
255,595214721.5042493
280,0.0
549,556208840.7645133
562,710313996.2799274
586,710313996.2799274
599,0.0
621,13149600.0
646,0.0
659,0.0
2,2, 1, 2, 0, 9, 0.00,60.00,Monday
303,7.2
304,24.0
343,15.6
344,26.7
383,21.0
384,24.0
1385,82462239.47391781
1386,0.0
1387,353579154.8601911
1388,0.0
9,177667599.66621337
45,80794580.96467422
132,29134070.729238243
182,67738947.97230089
255,537234251.9228783
280,0.0
549,497637706.21049597
562,635590296.1103648
586,635590296.1103648
599,0.0
621,0.0
646,0.0
659,0.0
2,2, 1, 2, 0,10, 0.00,60.00,Monday
303,7.2
304,24.0
343,15.6
344,26.7
383,21.0
384,24.0
1385,74229014.07775888
1386,0.0
1387,325924675.452244
1388,0.0
9,204393524.49727503
45,103878746.95458116
132,32775829.57039302
182,67738947.97230089
255,477418252.0207338
280,0.0
549,436803944.7641295
562,557862179.6854129
586,557862179.6854129
599,0.0
621,0.0
646,0.0
659,0.0
2,2, 1, 2, 0,11, 0.00,60.00,Monday
303,7.2
304,24.0
343,15.6
344,26.7
383,21.0
384,24.0
1385,68982426.03797066
1386,0.0
1387,300910957.7876688
1388,0.0
9,204393524.49727503
45,103878746.95458116
132,32775829.57039302
182,67738947.97230089
255,421001319.79140689
280,0.0
549,378868669.9168328
562,483754346.16451296
586,483754346.16451296
599,0.0
621,0.0
646,0.0
659,0.0
2,2, 1, 2, 0,12, 0.00,60.00,Monday
303,7.2
304,24.0
343,15.6
344,26.7
383,21.0
384,24.0
1385,65247210.59913485
1386,0.0
1387,283221331.71860256
1388,0.0
9,204393524.49727503
45,103878746.95458116
132,32775829.57039302
182,67738947.97230089
255,383972559.8320221
280,0.0
549,341062166.62773296
562,435404188.5963988
586,435404188.5963988
599,0.0
621,0.0
646,0.0
659,0.0
2,2, 1, 2, 0,13, 0.00,60.00,Monday
303,7.2
304,24.0
343,15.6
344,26.7
383,21.0
384,24.0
1385,64715307.115203108
1386,0.0
1387,276108855.25688806
1388,0.0
9,189209682.66116683
45,92336663.95962768
132,29134070.729238243
182,67738947.97230089
255,374392653.6508967
280,0.0
549,331488757.2332896
562,423147634.9972384
586,423147634.9972384
599,0.0
621,0.0
646,0.0
659,0.0
2,2, 1, 2, 0,14, 0.00,60.00,Monday
303,7.2
304,24.0
343,15.6
344,26.7
383,21.0
384,24.0
1385,63496504.59548126
1386,0.0
1387,282939975.05041047
1388,0.0
9,204393524.49727503
45,103878746.95458116
132,32775829.57039302
182,67738947.97230089
255,395217253.7178036
280,0.0
549,354030880.451304
562,452086857.15237626
586,452086857.15237626
599,0.0
621,0.0
646,0.0
659,0.0
2,2, 1, 2, 0,15, 0.00,60.00,Monday
303,7.2
304,24.0
343,15.6
344,26.7
383,21.0
384,24.0
1385,64482910.65322973
1386,0.0
1387,301034631.5558655
1388,0.0
9,204393524.49727503
45,103878746.95458116
132,32775829.57039302
182,67738947.97230089
255,434541038.66462919
280,0.0
549,395169263.1717085
562,504796757.88181319
586,504796757.88181319
599,0.0
621,0.0
646,0.0
659,0.0
2,2, 1, 2, 0,16, 0.00,60.00,Monday
303,7.2
304,24.0
343,15.6
344,26.7
383,21.0
384,24.0
1385,63206406.16421674
1386,0.0
1387,297481198.75991156
1388,0.0
9,204393524.49727503
45,103878746.95458116
132,32775829.57039302
182,67738947.97230089
255,415391049.48556086
280,0.0
549,375250184.89535406
562,479300391.64575019
586,479300391.64575019
599,0.0
621,0.0
646,0.0
659,0.0
2,2, 1, 2, 0,17, 0.00,60.00,Monday
303,7.2
304,24.0
343,15.6
344,26.7
383,21.0
384,24.0
1385,62934035.00792241
1386,0.0
1387,293895933.2319118
1388,0.0
9,230692724.49727503
45,103878746.95458116
132,32775829.57039302
182,67738947.97230089
255,398005869.5187453
280,0.0
549,357016257.16482236
562,455932291.0667445
586,455932291.0667445
599,0.0
621,26299200.0
646,0.0
659,0.0
2,2, 1, 2, 0,18, 0.00,60.00,Monday
303,7.200000000000002
304,30.0
343,15.6
344,26.7
383,15.5
384,30.0
1385,15970453.717645178
1386,0.0
1387,283292334.5438778
1388,0.0
9,109504605.4877907
45,34626248.98486037
132,14567035.364619121
182,20862521.13831122
255,400588425.95760729
280,0.0
549,382560767.5525475
562,489973144.53655567
586,489973144.53655567
599,0.0
621,39448800.0
646,0.0
659,0.0
2,2, 1, 2, 0,19, 0.00,60.00,Monday
303,7.200000000000002
304,30.0
343,15.6
344,26.7
383,15.5
384,30.0
1385,27511282.7951165
1386,0.0
1387,243074475.8046823
1388,0.0
9,73465199.51895693
45,11542082.99495346
132,3641758.8411547804
182,18832557.682848716
255,377535635.59737059
280,0.0
549,361116704.71928897
562,462127114.0211397
586,462127114.0211397
599,0.0
621,39448800.0
646,0.0
659,0.0
2,2, 1, 2, 0,20, 0.00,60.00,Monday
303,7.200000000000002
304,30.0
343,15.6
344,26.7
383,15.5
384,30.0
1385,26785086.900575058
1386,0.0
1387,317894439.604136
1388,0.0
9,78010513.27626412
45,11542082.99495346
132,3641758.8411547804
182,23377871.440155876
255,431411040.6477804
280,0.0
549,412688690.1044742
562,528267296.6116581
586,528267296.6116581
599,0.0
621,39448800.0
646,0.0
659,0.0
2,2, 1, 2, 0,21, 0.00,60.00,Monday
303,7.200000000000002
304,30.0
343,15.6
344,26.7
383,15.5
384,30.0
1385,29573301.858029337
1386,0.0
1387,232340811.1403844
1388,0.0
9,72891804.86522115
45,11542082.99495346
132,3641758.8411547804
182,18259163.0291129
255,338500323.921644
280,0.0
549,322530665.3631905
562,412594646.9451663
586,412594646.9451663
599,0.0
621,39448800.0
646,0.0
659,0.0
2,2, 1, 2, 0,22, 0.00,60.00,Monday
303,7.200000000000002
304,30.0
343,15.6
344,26.7
383,15.5
384,30.0
1385,26662992.837379926
1386,0.0
1387,304228413.930341
1388,0.0
9,77162988.7964558
45,11542082.99495346
132,3641758.8411547804
182,22530346.96034757
255,392766688.30327287
280,0.0
549,374708253.9336792
562,479578171.0188792
586,479578171.0188792
599,0.0
621,39448800.0
646,0.0
659,0.0
2,2, 1, 2, 0,23, 0.00,60.00,Monday
303,7.200000000000002
304,30.0
343,15.6
344,26.7
383,15.5
384,30.0
1385,32355827.655949136
1386,0.0
1387,236954926.99418877
1388,0.0
9,73302281.7998038
45,11542082.99495346
132,3641758.8411547804
182,18669639.963695568
255,361584326.1276134
280,0.0
549,345257897.9307598
562,441646860.46743878
586,441646860.46743878
599,0.0
621,39448800.0
646,0.0
659,0.0
2,2, 1, 2, 0,24, 0.00,60.00,Monday
303,7.200000000000002
304,30.0
343,15.6
344,26.7
383,15.5
384,30.0
1385,31530099.59047433
1386,0.0
1387,336268646.1346793
1388,0.0
9,79335587.59142594
45,11542082.99495346
132,3641758.8411547804
182,24702945.755317708
255,481537422.46262159
280,0.0
549,462058493.06647208
562,591416515.7503985
586,591416515.7503985
599,0.0
621,39448800.0
646,0.0
659,0.0
2,3, 1, 3, 0, 1, 0.00,60.00,Tuesday
303,7.200000000000002
304,30.0
343,15.6
344,26.7
383,15.5
384,30.0
1385,35793855.16991171
1386,0.0
1387,253623127.70399673
1388,0.0
9,74482388.7117438
45,11542082.99495346
132,3641758.8411547804
182,19849746.875635569
255,407183044.94260916
280,0.0
549,389998595.8241127
562,498901379.0846552
586,498901379.0846552
599,0.0
621,39448800.0
646,0.0
659,0.0
2,3, 1, 3, 0, 2, 0.00,60.00,Tuesday
303,7.200000000000002
304,30.0
343,15.6
344,26.7
383,15.5
384,30.0
1385,32614736.579240256
1386,0.0
1387,342891226.2281808
1388,0.0
9,79790261.39279302
45,11542082.99495346
132,3641758.8411547804
182,25157619.556684786
255,492430015.11611548
280,0.0
549,472691708.0215796
562,605015606.4002463
586,605015606.4002463
599,0.0
621,39448800.0
646,0.0
659,0.0
2,3, 1, 3, 0, 3, 0.00,60.00,Tuesday
303,7.200000000000002
304,30.0
343,15.6
344,26.7
383,15.5
384,30.0
1385,36830740.33289137
1386,0.0
1387,254918281.99879945
1388,0.0
9,74608355.29864934
45,11542082.99495346
132,3641758.8411547804
182,19975713.462541123
255,404249072.94854167
280,0.0
549,386981383.5003652
562,495001385.18640366
586,495001385.18640366
599,0.0
621,39448800.0
646,0.0
659,0.0
2,3, 1, 3, 0, 4, 0.00,60.00,Tuesday
303,7.200000000000002
304,30.0
343,15.6
344,26.7
383,15.5
384,30.0
1385,33389733.337704749
1386,0.0
1387,343403320.8132677
1388,0.0
9,79862065.84686972
45,11542082.99495346
132,3641758.8411547804
182,25229424.010761478
255,490492792.34885576
280,0.0
549,470698911.3443386
562,602436990.8651356
586,602436990.8651356
599,0.0
621,39448800.0
646,0.0
659,0.0
2,3, 1, 3, 0, 5, 0.00,60.00,Tuesday
303,7.200000000000002
304,30.0
343,15.6
344,26.7
383,15.5
384,30.0
1385,39618065.30084387
1386,0.0
1387,267735831.1373156
1388,0.0
9,75533936.23382513
45,11542082.99495346
132,3641758.8411547804
182,20901294.39771689
255,447802807.43356296
280,0.0
549,429823001.60540869
562,549841125.4150974
586,549841125.4150974
599,0.0
621,39448800.0
646,0.0
659,0.0
2,3, 1, 3, 0, 6, 0.00,60.00,Tuesday
303,7.200000000000002
304,30.0
343,15.6
344,26.7
383,15.5
384,30.0
1385,37924080.96239337
1386,0.0
1387,379027384.3930023
1388,0.0
9,82245746.50028113
45,11542082.99495346
132,3641758.8411547804
182,27613104.66417289
255,584047637.4096387
280,0.0
549,562924645.7562507
562,720536167.2110411
586,720536167.2110411
599,0.0
621,39448800.0
646,0.0
659,0.0
2,3, 1, 3, 0, 7, 0.00,60.00,Tuesday
303,7.2
304,30.0
343,15.6
344,26.7
383,21.0
384,30.0
1385,115148526.94723323
1386,0.0
1387,418084536.0090927
1388,0.0
9,122371589.80840913
45,11542082.99495346
132,3641758.8411547804
182,67738947.9723009
255,703765028.9662962
280,0.0
549,669982958.0559669
562,855498109.7752853
586,855498109.7752853
599,0.0
621,39448800.0
646,0.0
659,0.0
2,3, 1, 3, 0, 8, 0.00,60.00,Tuesday
303,7.2
304,24.0
343,15.6
344,26.7
383,21.0
384,24.0
1385,95863725.50588517
1386,0.0
1387,412528633.59824487
1388,0.0
9,145265674.1578886
45,46168331.97981384
132,18208794.2057739
182,67738947.97230089
255,681596872.9988257
280,0.0
549,647178312.9544202
562,826879487.8964224
586,826879487.8964224
599,0.0
621,13149600.0
646,0.0
659,0.0
2,3, 1, 3, 0, 9, 0.00,60.00,Tuesday
303,7.2
304,24.0
343,15.6
344,26.7
383,21.0
384,24.0
1385,87396437.19314973
1386,0.0
1387,407183360.24840429
1388,0.0
9,177667599.66621337
45,80794580.96467422
132,29134070.729238243
182,67738947.97230089
255,673779573.3603505
280,0.0
549,640449200.6057297
562,818523808.2286376
586,818523808.2286376
599,0.0
621,0.0
646,0.0
659,0.0
2,3, 1, 3, 0,10, 0.00,60.00,Tuesday
303,7.2
304,24.0
343,15.6
344,26.7
383,21.0
384,24.0
1385,82111272.21796544
1386,0.0
1387,401291283.789421
1388,0.0
9,204393524.49727503
45,103878746.95458116
132,32775829.57039302
182,67738947.97230089
255,668325470.2315064
280,0.0
549,635772584.7658115
562,812697543.2087165
586,812697543.2087165
599,0.0
621,0.0
646,0.0
659,0.0
2,3, 1, 3, 0,11, 0.00,60.00,Tuesday
303,7.2
304,24.0
343,15.6
344,26.7
383,21.0
384,24.0
1385,78627168.31189054
1386,0.0
1387,388192014.13398167
1388,0.0
9,204393524.49727503
45,103878746.95458116
132,32775829.57039302
182,67738947.97230089
255,642893566.940713
280,0.0
549,609846838.2079728
562,779571076.5930923
586,779571076.5930923
599,0.0
621,0.0
646,0.0
659,0.0
2,3, 1, 3, 0,12, 0.00,60.00,Tuesday
303,7.2
304,24.0
343,15.6
344,26.7
383,21.0
384,24.0
1385,75510217.78913324
1386,0.0
1387,372160020.02813568
1388,0.0
9,204393524.49727503
45,103878746.95458116
132,32775829.57039302
182,67738947.97230089
255,607811243.4459721
280,0.0
549,573821509.8145437
562,733484660.400323
586,733484660.400323
599,0.0
621,0.0
646,0.0
659,0.0
2,3, 1, 3, 0,13, 0.00,60.00,Tuesday
303,7.2
304,24.0
343,15.6
344,26.7
383,21.0
384,24.0
1385,74598670.56699409
1386,0.0
1387,360648225.5252419
1388,0.0
9,189209682.66116683
45,92336663.95962768
132,29134070.729238243
182,67738947.97230089
255,582407029.7198768
280,0.0
549,547497862.3274027
562,699765610.6482875
586,699765610.6482875
599,0.0
621,0.0
646,0.0
659,0.0
2,3, 1, 3, 0,14, 0.00,60.00,Tuesday
303,7.2
304,24.0
343,15.6
344,26.7
383,21.0
384,24.0
1385,71318972.7364901
1386,0.0
1387,351162138.5346659
1388,0.0
9,204393524.49727503
45,103878746.95458116
132,32775829.57039302
182,67738947.97230089
255,558321314.460972
280,0.0
549,523056191.08317819
562,668535253.214362
586,668535253.214362
599,0.0
621,0.0
646,0.0
659,0.0
2,3, 1, 3, 0,15, 0.00,60.00,Tuesday
303,7.2
304,24.0
343,15.6
344,26.7
383,21.0
384,24.0
1385,70292144.65669589
1386,0.0
1387,350940998.6868671
1388,0.0
9,204393524.49727503
45,103878746.95458116
132,32775829.57039302
182,67738947.97230089
255,553919370.6177349
280,0.0
549,518653932.8875622
562,662924243.6071555
586,662924243.6071555
599,0.0
621,0.0
646,0.0
659,0.0
2,3, 1, 3, 0,16, 0.00,60.00,Tuesday
303,7.2
304,24.0
343,15.6
344,26.7
383,21.0
384,24.0
1385,69739515.4557138
1386,0.0
1387,351934444.9771186
1388,0.0
9,204393524.49727503
45,103878746.95458116
132,32775829.57039302
182,67738947.97230089
255,551872759.9132371
280,0.0
549,516607237.72629347
562,660317987.9260731
586,660317987.9260731
599,0.0
621,0.0
646,0.0
659,0.0
2,3, 1, 3, 0,17, 0.00,60.00,Tuesday
303,7.2
304,24.0
343,15.6
344,26.7
383,21.0
384,24.0
1385,70593755.15450657
1386,0.0
1387,357334039.24366709
1388,0.0
9,230692724.49727503
45,103878746.95458116
132,32775829.57039302
182,67738947.97230089
255,558428340.3409054
280,0.0
549,523168566.0178621
562,668702567.7967126
586,668702567.7967126
599,0.0
621,26299200.0
646,0.0
659,0.0
2,3, 1, 3, 0,18, 0.00,60.00,Tuesday
303,7.200000000000002
304,30.0
343,15.6
344,26.7
383,15.5
384,30.0
1385,20667505.25988866
1386,0.0
1387,330782624.092381
1388,0.0
9,112689725.86733046
45,34626248.98486037
132,14567035.364619121
182,24047641.517850974
255,529837491.9896116
280,0.0
549,509514810.0108917
562,652590807.048054
586,652590807.048054
599,0.0
621,39448800.0
646,0.0
659,0.0
2,3, 1, 3, 0,19, 0.00,60.00,Tuesday
303,7.200000000000002
304,30.0
343,15.6
344,26.7
383,15.5
384,30.0
1385,33787935.74522641
1386,0.0
1387,284678758.7946175
1388,0.0
9,76349278.25360182
45,11542082.99495346
132,3641758.8411547804
182,21716636.417493587
255,509080369.89874699
280,0.0
549,490538087.02214136
562,627859629.4771854
586,627859629.4771854
599,0.0
621,39448800.0
646,0.0
659,0.0
2,3, 1, 3, 0,20, 0.00,60.00,Tuesday
303,7.200000000000002
304,30.0
343,15.6
344,26.7
383,15.5
384,30.0
1385,34264760.44645798
1386,0.0
1387,389966192.2528073
1388,0.0
9,82773480.49298066
45,11542082.99495346
132,3641758.8411547804
182,28140838.656872419
255,615302626.1720758
280,0.0
549,593744780.5178915
562,760161291.9890965
586,760161291.9890965
599,0.0
621,39448800.0
646,0.0
659,0.0
2,3, 1, 3, 0,21, 0.00,60.00,Tuesday
303,7.200000000000002
304,30.0
343,15.6
344,26.7
383,15.5
384,30.0
1385,38709137.376783538
1386,0.0
1387,292912893.9236867
1388,0.0
9,77070961.70925452
45,11542082.99495346
132,3641758.8411547804
182,22438319.873146286
255,528984426.6446203
280,0.0
549,509932245.198544
562,652573135.881762
586,652573135.881762
599,0.0
621,39448800.0
646,0.0
659,0.0
2,3, 1, 3, 0,22, 0.00,60.00,Tuesday
303,7.200000000000002
304,30.0
343,15.6
344,26.7
383,15.5
384,30.0
1385,36895779.786231759
1386,0.0
1387,396504327.11544027
1388,0.0
9,83274891.64457625
45,11542082.99495346
132,3641758.8411547804
182,28642249.808468015
255,630010729.7961605
280,0.0
549,608296665.5152922
562,778736933.246136
586,778736933.246136
599,0.0
621,39448800.0
646,0.0
659,0.0
2,3, 1, 3, 0,23, 0.00,60.00,Tuesday
303,7.200000000000002
304,30.0
343,15.6
344,26.7
383,15.5
384,30.0
1385,41423475.85518077
1386,0.0
1387,297832925.19983467
1388,0.0
9,77488740.78818998
45,11542082.99495346
132,3641758.8411547804
182,22856098.95208175
255,541506151.3702148
280,0.0
549,522190078.74017527
562,668205132.4047172
586,668205132.4047172
599,0.0
621,39448800.0
646,0.0
659,0.0
2,3, 1, 3, 0,24, 0.00,60.00,Tuesday
303,7.200000000000002
304,30.0
343,15.6
344,26.7
383,15.5
384,30.0
1385,38597896.87020075
1386,0.0
1387,402495147.7980161
1388,0.0
9,83708132.2837799
45,11542082.99495346
132,3641758.8411547804
182,29075490.447671668
255,641646947.5666614
280,0.0
549,619794336.6404154
562,793425379.7741265
586,793425379.7741265
599,0.0
621,39448800.0
646,0.0
659,0.0
2,4, 1, 4, 0, 1, 0.00,60.00,Wednesday
303,7.200000000000002
304,30.0
343,15.6
344,26.7
383,15.5
384,30.0
1385,43258930.963941339
1386,0.0
1387,301784918.81306198
1388,0.0
9,77814197.8265044
45,11542082.99495346
132,3641758.8411547804
182,23181555.99039617
255,550868800.4881245
280,0.0
549,531349778.6345937
562,679892094.0806843
586,679892094.0806843
599,0.0
621,39448800.0
646,0.0
659,0.0
2,4, 1, 4, 0, 2, 0.00,60.00,Wednesday
303,7.200000000000002
304,30.0
343,15.6
344,26.7
383,15.5
384,30.0
1385,39756538.06460558
1386,0.0
1387,405991240.4148207
1388,0.0
9,83972847.37769586
45,11542082.99495346
132,3641758.8411547804
182,29340205.54158763
255,649267534.0879966
280,0.0
549,627332190.0474464