Program Version,EnergyPlus, Version 9.2.0-921312fa1d, YMD=2020.12.22 18:19
1,5,Environment Title[],Latitude[deg],Longitude[deg],Time Zone[],Elevation[m]
2,8,Day of Simulation[],Month[],Day of Month[],DST Indicator[1=yes 0=no],Hour[],StartMinute[],EndMinute[],DayType
3,5,Cumulative Day of Simulation[],Month[],Day of Month[],DST Indicator[1=yes 0=no],DayType  ! When Daily Meters Requested
4,2,Cumulative Days of Simulation[],Month[]  ! When Monthly Meters Requested
5,1,Cumulative Days of Simulation[] ! When Run Period Meters Requested
6,1,Calendar Year of Simulation[] ! When Annual Meters Requested
9,1,Electricity:Facility [J] !Hourly
1488,1,Heating:Electricity [J] !Hourly
1427,1,Cooling:Electricity [J] !Hourly
45,1,InteriorLights:Electricity [J] !Hourly
1377,1,ExteriorLights:Electricity [J] !Hourly
207,1,InteriorEquipment:Electricity [J] !Hourly
1332,1,Fans:Electricity [J] !Hourly
1522,1,Pumps:Electricity [J] !Hourly
481,1,Refrigeration:Electricity [J] !Hourly
322,1,Gas:Facility [J] !Hourly
1475,1,Heating:Gas [J] !Hourly
358,1,InteriorEquipment:Gas [J] !Hourly
812,1,WaterSystems:Gas [J] !Hourly
937,1,Heating:EnergyTransfer [J] !Hourly
962,1,Cooling:EnergyTransfer [J] !Hourly
1179,1,WaterSystems:EnergyTransfer [J] !Hourly
456,1,Refrigeration:EnergyTransfer [J] !Hourly
1450,1,HeatingCoils:EnergyTransfer [J] !Hourly
1414,1,CoolingCoils:EnergyTransfer [J] !Hourly
End of Data Dictionary
1,RUNPERIOD 1,  41.98, -87.92,  -6.00, 201.00
2,1, 1, 1, 0, 1, 0.00,60.00,Holiday
9,294800466.3159107
45,12577284.029609569
207,24526752.225707845
322,72983653.06032446
358,6304500.0
456,439067987.0287494
481,186152434.75630484
812,72000.0
937,29631359.63422125
962,0.0
1179,449600.5375941816
1332,22666795.3040181
1377,48877200.0
1414,0.0
1427,0.0
1450,51964342.75955961
1475,66607153.06032446
1488,0.0
1522,0.000270357189621502
2,1, 1, 1, 0, 2, 0.00,60.00,Holiday
9,328283960.9709142
45,12577284.029609569
207,24526752.225707845
322,213492219.65009523
358,6304500.0
456,430188766.10829576
481,184775946.31256149
812,72000.0
937,116326323.96662218
962,0.0
1179,449600.5436713927
1332,57526778.40276355
1377,48877200.0
1414,0.0
1427,0.0
1450,161596422.82953657
1475,207115719.65009523
1488,0.0
1522,0.0002717671895236298
2,1, 1, 1, 0, 3, 0.00,60.00,Holiday
9,334872819.81626096
45,12577284.029609569
207,24526752.225707845
322,235940126.3156159
358,6304500.0
456,430388377.1579838
481,184755676.0870855
812,4191694.0444064668
937,143028917.70447899
962,0.0
1179,449600.543186129
1332,64135907.47358322
1377,48877200.0
1414,0.0
1427,0.0
1450,175891215.74952648
1475,225443932.27120943
1488,0.0
1522,0.00027478792596542974
2,1, 1, 1, 0, 4, 0.00,60.00,Holiday
9,320384228.5024881
45,12577284.029609569
207,24526752.225707845
322,185203670.91670818
358,6304500.0
456,428668054.9503365
481,184465637.5707822
812,72000.0
937,124604510.33346987
962,0.0
1179,385371.8957246118
1332,49937354.67615689
1377,48877200.0
1414,0.0
1427,0.0
1450,139574217.75847356
1475,178827170.91670818
1488,0.0
1522,0.0002315241138149053
2,1, 1, 1, 0, 5, 0.00,60.00,Holiday
9,351823876.59342929
45,12577284.029609569
207,24526752.225707845
322,274121579.5603502
358,6304500.0
456,559799409.1464245
481,207264337.5413183
812,72000.0
937,170736820.34348775
962,0.0
1179,385371.89569322936
1332,58578302.79656015
1377,48877200.0
1414,0.0
1427,0.0
1450,208930573.79140855
1475,267745079.56035016
1488,0.0
1522,0.00023335708045680925
2,1, 1, 1, 0, 6, 0.00,60.00,Holiday
9,356391998.2180427
45,12577284.029609569
207,24526752.225707845
322,290572750.6507518
358,6304500.0
456,554588250.1190106
481,206274854.48890663
812,4191568.3834361645
937,188417460.8361243
962,0.0
1179,385371.89559070739
1332,64135907.47358323
1377,48877200.0
1414,0.0
1427,0.0
1450,218530785.80984653
1475,280076682.2673157
1488,0.0
1522,0.0002353798005758526
2,1, 1, 1, 0, 7, 0.00,60.00,Holiday
9,445373122.91423836
45,25154568.059219138
207,50939904.45141569
322,2170758239.214377
358,12609000.0
456,602917639.9311028
481,216608142.8446647
812,72000.0
937,1006114523.2601919
962,0.0
1179,449600.54233917736
1332,103793307.55866869
1377,48877200.0
1414,0.0
1427,0.0
1450,1686146262.1736422
1475,2158077239.214377
1488,0.0
1522,0.0002701766575222884
2,1, 1, 1, 0, 8, 0.00,60.00,Holiday
9,440508675.99493
45,25154568.059219138
207,50939904.45141569
322,1999189291.2346225
358,12609000.0
456,774412117.8860928
481,248401595.92523594
812,72000.0
937,888232773.2361966
962,0.0
1179,642286.4817614463
1332,103793307.55866869
1377,12219300.0
1414,0.0
1427,0.0
1450,1551733634.074105
1475,1986508291.2346225
1488,0.0
1522,0.00039058493379111315
2,1, 1, 1, 0, 9, 0.00,60.00,Holiday
9,556300407.5555379
45,25154568.059219138
207,50939904.45141569
322,1718051388.7995549
358,12609000.0
456,869872045.0485743
481,376412627.48576846
812,4191799.4355009195
937,687591074.3857386
962,0.0
1179,770742.7383652477
1332,103793307.55866869
1377,0.0
1414,0.0
1427,0.0
1450,1328732672.3009728
1475,1701250589.3640538
1488,0.0
1522,0.0004659112518530476
2,1, 1, 1, 0,10, 0.00,60.00,Holiday
9,457334912.2728225
45,25154568.059219138
207,50939904.45141569
322,1594111314.1876398
358,12609000.0
456,882091269.3274763
481,277447132.2029736
812,72000.0
937,637846694.9278098
962,0.0
1179,899201.0649715677
1332,103793307.55866869
1377,0.0
1414,0.0
1427,0.0
1450,1235124691.8787275
1475,1581430314.1876398
1488,0.0
1522,0.0005453902649399183
2,1, 1, 1, 0,11, 0.00,60.00,Holiday
9,582131828.4133577
45,100618272.23687655
207,99993408.90283138
322,1409801569.1714836
358,25218000.0
456,816779487.7837228
481,277726839.71385487
812,4193146.7316811105
937,530339356.9358892
962,3689660.575601372
1179,1862619.7239105392
1332,103793307.55866869
1377,0.0
1414,0.0
1427,0.0
1450,1077819621.6412287
1475,1380390422.4398025
1488,0.0
1522,0.0011261585989025946
2,1, 1, 1, 0,12, 0.00,60.00,Holiday
9,695478210.0743575
45,100618272.23687655
207,99993408.90283138
322,1304138589.7562204
358,25218000.0
456,827747228.3872954
481,391073221.3747748
812,4193314.2096461185
937,495435717.8694762
962,9934446.392407787
1179,1991075.594723782
1332,103793307.55866869
1377,0.0
1414,0.0
1427,0.0
1450,995221418.8060956
1475,1274727275.546574
1488,0.0
1522,0.0012061808161191795
2,1, 1, 1, 0,13, 0.00,60.00,Holiday
9,721525244.3035414
45,150927408.3553148
207,132695745.20377517
322,1180646933.9524174
358,33624000.00000001
456,1018933058.0816351
481,334108783.18438139
812,4194012.481021069
937,446617900.771187
962,32010499.032157147
1179,2312224.612527257
1332,103793307.55866869
1377,0.0
1414,0.0
1427,0.0
1450,891970528.769762
1475,1142828921.4713965
1488,0.0
1522,0.001401254096329189
2,1, 1, 1, 0,14, 0.00,60.00,Holiday
9,711702507.549363
45,150927408.3553148
207,132695745.20377517
322,1115500019.3431288
358,33624000.00000001
456,966227955.7271203
481,324286046.4302027
812,4193787.3803261776
937,427409827.34525588
962,36829849.254660818
1179,2312216.592729387
1332,103793307.55866869
1377,0.0
1414,0.0
1427,0.0
1450,841022454.4482226
1475,1077682231.9628025
1488,0.0
1522,0.0014015316784065169
2,1, 1, 1, 0,15, 0.00,60.00,Holiday
9,698191681.3589488
45,150927408.3553148
207,132695745.20377517
322,1081017728.0655397
358,33624000.00000001
456,910595638.3799737
481,310775220.2398654
812,4194015.238610227
937,413382985.9212842
962,39724739.32466603
1179,2183758.6904953916
1332,103793307.55866869
1377,0.0
1414,0.0
1427,0.0
1450,814055765.8392336
1475,1043199712.8269293
1488,0.0
1522,0.0013246398821602267
2,1, 1, 1, 0,16, 0.00,60.00,Holiday
9,686090373.3960456
45,150927408.3553148
207,132695745.20377517
322,1070840764.7357123
358,33624000.00000001
456,852103310.1814524
481,298673912.27692428
812,4193800.901978495
937,407134390.8248508
962,41601090.594353068
1179,2248001.3928943194
1332,103793307.55866869
1377,0.0
1414,0.0
1427,0.0
1450,806083415.1812492
1475,1033022963.8337339
1488,0.0
1522,0.001362573190478889
2,1, 1, 1, 0,17, 0.00,60.00,Holiday
9,722958436.5718944
45,150927408.3553148
207,132695745.20377517
322,1064179008.6925981
358,33624000.00000001
456,853168244.6015956
481,298884075.45269516
812,4193779.017446693
937,403244737.6203984
962,42984711.340770978
1179,2376447.4988540385
1332,103793307.55866869
1377,36657900.0
1414,0.0
1427,0.0
1450,800863542.0075008
1475,1026361229.6751514
1488,0.0
1522,0.0014403300993890097
2,1, 1, 1, 0,18, 0.00,60.00,Holiday
9,632835605.8332408
45,100618272.23687655
207,99993408.90283138
322,1244570344.3760133
358,25218000.0
456,826035865.8198468
481,279553417.1335409
812,72000.0
937,516041415.3611169
962,14034894.194328467
1179,2183758.8669780606
1332,103793307.55866869
1377,48877200.0
1414,0.0
1427,0.0
1450,951814003.2447209
1475,1219280344.3760133
1488,0.0
1522,0.0013230458784574866
2,1, 1, 1, 0,19, 0.00,60.00,Holiday
9,655805381.6008452
45,50309136.11843827
207,67291072.60188759
322,1331933255.9478465
358,16812000.000000005
456,884099118.7011691
481,385534665.320882
812,4193128.912521486
937,560544496.948431
962,0.0
1179,1605712.574861635
1332,103793307.55866869
1377,48877200.0
1414,0.0
1427,0.0
1450,1023577217.1229297
1475,1310928127.0353249
1488,0.0
1522,0.0009687095878994522
2,1, 1, 1, 0,20, 0.00,60.00,Holiday
9,584324953.7809947
45,50309136.11843827
207,67291072.60188759
322,1325866913.520078
358,16812000.000000005
456,1047267759.4779742
481,314054237.50094929
812,4192992.654620628
937,568012652.8525672
962,0.0
1179,1734163.8856718899
1332,103793307.55866869
1377,48877200.0
1414,0.0
1427,0.0
1450,1018849089.7908809
1475,1304861920.8654574
1488,0.0
1522,0.001050727125647909
2,1, 1, 1, 0,21, 0.00,60.00,Holiday
9,552610403.9967313
45,50309136.11843827
207,67291072.60188759
322,1331507748.397044
358,16812000.000000005
456,926845887.5608503
481,282339687.7169157
812,4192596.0621573168
937,573233360.4982829
962,0.0
1179,1348801.5684361268
1332,103793307.55866869
1377,48877200.0
1414,0.0
1427,0.0
1450,1023264385.8458042
1475,1310503152.3348866
1488,0.0
1522,0.0008209353306210993
2,1, 1, 1, 0,22, 0.00,60.00,Holiday
9,501123766.3431592
45,50309136.11843827
207,67291072.60188759
322,1168283211.735815
358,16812000.000000005
456,646043955.8643026
481,230853050.06354589
812,72000.0
937,452790900.2781583
962,0.0
1179,1027656.286121011
1332,103793307.55866869
1377,48877200.0
1414,0.0
1427,0.0
1450,899161774.7724499
1475,1151399211.735815
1488,0.0
1522,0.0006186763474315749
2,1, 1, 1, 0,23, 0.00,60.00,Holiday
9,278337673.0049919
45,12577284.029609569
207,24526752.225707845
322,10496170.483886449
358,6304500.0
456,480520990.5117424
481,192356436.74928225
812,4191670.4838864498
937,0.0
962,0.0
1179,642286.479063289
1332,0.0
1377,48877200.0
1414,0.0
1427,0.0
1450,0.0
1475,0.0
1488,0.0
1522,0.0003922503364554136
2,1, 1, 1, 0,24, 0.00,60.00,Holiday
9,406780620.0265974
45,12577284.029609569
207,24526752.225707845
322,6376500.0
358,6304500.0
456,557704319.2383739
481,320799383.77104768
812,72000.0
937,0.0
962,0.0
1179,385371.83848663876
1332,0.0
1377,48877200.0
1414,0.0
1427,0.0
1450,0.0
1475,0.0
1488,0.0
1522,0.0002322804973775058
2,2, 1, 2, 0, 1, 0.00,60.00,Monday
9,317924714.3726078
45,12577284.029609569
207,32702336.300943793
322,44269376.403363447
358,8406000.000000002
456,530692138.6157147
481,208960911.86319376
812,72000.0
937,17770248.529389994
962,0.0
1179,257383.32726972679
1332,14806982.17870571
1377,48877200.0
1414,0.0
1427,0.0
1450,27917273.59462349
1475,35791376.403363447
1488,0.0
1522,0.00015501695348541292
2,2, 1, 2, 0, 2, 0.00,60.00,Monday
9,324803000.7085757
45,12577284.029609569
207,32702336.300943793
322,104904662.20391907
358,8406000.000000002
456,439559507.0129543
481,186225233.84170918
812,72000.0
937,52498249.38790992
962,0.0
1179,321729.15832360219
1332,44420946.53611714
1377,48877200.0
1414,0.0
1427,0.0
1450,75212796.51905689
1475,96426662.20391909
1488,0.0
1522,0.00019603203781057792
2,2, 1, 2, 0, 3, 0.00,60.00,Monday
9,310429138.78441676
45,12577284.029609569
207,32702336.300943793
322,87798818.26579161
358,8406000.000000002
456,438417552.71798059
481,186049924.71497847
812,4191474.5591715739
937,43375180.45661074
962,0.0
1179,321729.1516777136
1332,30222393.738690799
1377,48877200.0
1414,0.0
1427,0.0
1450,58663654.6426906
1475,75201343.70662005
1488,0.0
1522,0.00019413476062743958
2,2, 1, 2, 0, 4, 0.00,60.00,Monday
9,325834334.7257646
45,12577284.029609569
207,32702336.300943793
322,137256033.06339253
358,8406000.000000002
456,434309118.79231169
481,185431279.71510113
812,72000.0
937,76823533.12693486
962,0.0
1179,257383.32762250567
1332,46246234.67995525
1377,48877200.0
1414,0.0
1427,0.0
1450,100456300.29233447
1475,128778033.06339252
1488,0.0
1522,0.00015480693568955102
2,2, 1, 2, 0, 5, 0.00,60.00,Monday
9,349306777.9235835
45,12577284.029609569
207,32702336.300943793
322,124586729.34530019
358,8406000.000000002
456,573874471.2551996
481,209512152.29419796
812,72000.0
937,73316502.51434422
962,0.0
1179,257383.32753617475
1332,45637805.29867588
1377,48877200.0
1414,0.0
1427,0.0
1450,90574186.75782705
1475,116108729.34530019
1488,0.0
1522,0.00015637725223174523
2,2, 1, 2, 0, 6, 0.00,60.00,Monday
9,336001109.32038488
45,12577284.029609569
207,32702336.300943793
322,97124570.53739041
358,8406000.000000002
456,565366071.5752157
481,208039106.60238333
812,4191402.0430611327
937,57720333.06266475
962,0.0
1179,257383.32707377507
1332,33805182.3872919
1377,48877200.0
1414,0.0
1427,0.0
1450,65951188.284682858
1475,84527168.49432928
1488,0.0
1522,0.00015621731275874097
2,2, 1, 2, 0, 7, 0.00,60.00,Monday
9,497255489.3489548
45,50309136.11843827
207,67291072.60188759
322,1581463412.584395
358,16812000.000000005
456,620290322.153515
481,226984773.06980563
812,72000.0
937,780718469.029424
962,0.0
1179,257383.3276089672
1332,103793307.55866869
1377,48877200.0
1414,0.0
1427,0.0
1450,1222008544.70958
1475,1564579412.584395
1488,0.0
1522,0.00015462024748545645
2,2, 1, 2, 0, 8, 0.00,60.00,Monday
9,493653463.3288336
45,50309136.11843827
207,67291072.60188759
322,1402508994.2373715
358,16812000.000000005
456,797977199.0722833
481,260040647.04925145
812,4192107.967428896
937,650275263.4677668
962,0.0
1179,965187.4503880487
1332,103793307.55866869
1377,12219300.0
1414,0.0
1427,0.0
1450,1078722987.720284
1475,1381504886.2699424
1488,0.0
1522,0.0005876200468836371
2,2, 1, 2, 0, 9, 0.00,60.00,Monday
9,755393949.3076313
45,125772840.29609567
207,116344577.05330327
322,1243916351.1367605
358,29420999.999999998
456,906316692.9315287
481,409483224.39867249
812,72000.0
937,546323204.2756685
962,17681896.15596611
1179,1479947.2381889614
1332,103793307.55866869
1377,0.0
1414,0.0
1427,0.0
1450,947929384.9161786
1475,1214423351.1367605
1488,0.0
1522,0.0008910937957018033
2,2, 1, 2, 0,10, 0.00,60.00,Monday
9,843211636.5397291
45,226391112.5329722
207,149046913.35424707
322,1082478275.1276878
358,37827000.0
456,1026682741.5501611
481,363980303.09259608
812,4193636.694705123
937,449941024.77966108
962,43147921.42761752
1179,2059059.3316850544
1332,103793307.55866869
1377,0.0
1414,0.0
1427,0.0
1450,811838623.3106597
1475,1040457638.4329827
1488,0.0
1522,0.0012448725540645423
2,2, 1, 2, 0,11, 0.00,60.00,Monday
9,808968653.6325479
45,226391112.5329722
207,149046913.35424707
322,1007449669.5527473
358,37827000.0
456,896981762.8688032
481,329682720.28052708
812,4194090.039168589
937,412452899.2909055
962,45086724.44264354
1179,2638155.2597221469
1332,103793307.55866869
1377,0.0
1414,241041.00242286223
1427,54599.90453670279
1450,753259113.0662534
1475,965428579.5135787
1488,0.0
1522,0.0015959263530256072
2,2, 1, 2, 0,12, 0.00,60.00,Monday
9,919286301.2042328
45,226391112.5329722
207,149046913.35424707
322,946030503.2916925
358,37827000.0
456,890859921.187407
481,439910197.0149652
812,4195796.668966699
937,373421725.7733557
962,46468433.711044069
1179,3667711.470019629
1332,103793307.55866869
1377,0.0
1414,639116.2194493291
1427,144770.7411561999
1450,705324710.7832272
1475,904007706.6227259
1488,0.0
1522,0.0022233465909835316
2,2, 1, 2, 0,13, 0.00,60.00,Monday
9,847126991.0034756
45,226391112.5329722
207,149046913.35424707
322,924064658.7847636
358,37827000.0
456,1075649881.8373433
481,367837872.97566357
812,8319610.466397889
937,352966591.1483735
962,47085084.77493015
1179,3989344.46374432
1332,103793307.55866869
1377,0.0
1414,255100.31727924717
1427,57784.57951437738
1450,684960422.5142247
1475,877918048.3183657
1488,0.0
1522,0.0024095980274364858
2,2, 1, 2, 0,14, 0.00,60.00,Monday
9,837703367.8287861
45,226391112.5329722
207,149046913.35424707
322,933471127.6844686
358,37827000.0
456,1020414121.6530135
481,358472034.3805232
812,4195505.571163254
937,340051017.40058216
962,49234108.433575738
1179,3925031.0215171987
1332,103793307.55866869
1377,0.0
1414,0.0
1427,0.0
1450,695511073.5425453
1475,891448622.1133053
1488,0.0
1522,0.002374871436401104
2,2, 1, 2, 0,15, 0.00,60.00,Monday
9,829453216.3303789
45,226391112.5329722
207,149046913.35424707
322,946700073.0208509
358,37827000.0
456,972917177.4864163
481,350221882.88254049
812,4194745.097723786
937,328242645.8222425
962,51956251.42682665
1179,3217253.1150138245
1332,103793307.55866869
1377,0.0
1414,0.0
1427,0.0
1450,705827601.7461425
1475,904678327.9231272
1488,0.0
1522,0.0019503355596602896
2,2, 1, 2, 0,16, 0.00,60.00,Monday
9,820515682.6180503
45,226391112.5329722
207,149046913.35424707
322,912185706.1252866
358,37827000.0
456,919000438.8009671
481,341284349.17041209
812,8317338.2118938029
937,309470051.7345842
962,52485110.34865853
1179,2895542.6002148606
1332,103793307.55866869
1377,0.0
1414,0.0
1427,0.0
1450,675673603.7346733
1475,866041367.9133928
1488,0.0
1522,0.0017502419463598497
2,2, 1, 2, 0,17, 0.00,60.00,Monday
9,859338231.6641008
45,226391112.5329722
207,149046913.35424707
322,894550175.2160316
358,37827000.0
456,922333465.1566175
481,343448998.216424
812,4194856.589814089
937,308612543.35784319
962,51650993.72768227
1179,2959878.5802723097
1332,103793307.55866869
1377,36657900.0
1414,0.0
1427,0.0
1450,665124927.7228944
1475,852528318.6262174
1488,0.0
1522,0.001788694140404589
2,2, 1, 2, 0,18, 0.00,60.00,Monday
9,871626861.4048522
45,226391112.5329722
207,149046913.35424707
322,932298209.3254517
358,37827000.0
456,923350084.5334721
481,343518327.95713636
812,4194488.845527343
937,321759295.45297446
962,52394719.61182069
1179,3024212.2828385147
1332,103793307.55866869
1377,48877200.0
1414,0.0
1427,0.0
1450,694576727.8720908
1475,890276720.4799243
1488,0.0
1522,0.0018277494323801075
2,2, 1, 2, 0,19, 0.00,60.00,Monday
9,867142890.7309334
45,150927408.3553148
207,132695745.20377517
322,946055443.9070113
358,33624000.00000001
456,934614000.0099131
481,430849229.6115405
812,4194346.288723129
937,341794153.48294427
962,47949426.42497982
1179,2702509.313408385
1332,103793307.55866869
1377,48877200.0
1414,0.0
1427,0.0
1450,708607178.85393
1475,908237097.618288
1488,0.0
1522,0.0016342083174003316
2,2, 1, 2, 0,20, 0.00,60.00,Monday
9,812034794.6458839
45,150927408.3553148
207,132695745.20377517
322,946931000.281938
358,33624000.00000001
456,1157378671.2639039
481,375741133.5268005
812,4193552.3700898026
937,359495278.1113942
962,46160038.394635807
1179,2187742.60478748
1332,103793307.55866869
1377,48877200.0
1414,0.0
1427,0.0
1450,709282079.7085199
1475,909113447.9118482
1488,0.0
1522,0.0013246724532621792
2,2, 1, 2, 0,21, 0.00,60.00,Monday
9,721359171.3992425
45,125772840.29609567
207,116344577.05330327
322,944788635.9697598
358,29420999.999999998
456,993742547.5660756
481,326571246.48988869
812,4193766.0678854288
937,372552308.14947679
962,40892671.16855661
1179,2123412.260828035
1332,103793307.55866869
1377,48877200.0
1414,0.0
1427,0.0
1450,710910628.626838
1475,911173869.9018744
1488,0.0
1522,0.0012860658062465148
2,2, 1, 2, 0,22, 0.00,60.00,Monday
9,516529381.2022765
45,50309136.11843827
207,67291072.60188759
322,825744811.0015636
358,16812000.000000005
456,661945217.4916309
481,246258664.92238815
812,72000.0
937,287571234.80112937
962,20828338.06391416
1179,1479951.612976884
1332,103793307.55866869
1377,48877200.0
1414,0.0
1427,0.0
1450,631347599.698384
1475,808860811.0015636
1488,0.0
1522,0.0008937317106117854
2,2, 1, 2, 0,23, 0.00,60.00,Monday
9,306989468.3574095
45,12577284.029609569
207,32702336.300943793
322,12598178.566563176
358,8406000.000000002
456,509653156.8333389
481,212832648.02635
812,4192178.5665631757
937,0.0
962,0.0
1179,836495.7917625646
1332,0.0
1377,48877200.0
1414,0.0
1427,0.0
1450,0.0
1475,0.0
1488,0.0
1522,0.0005060887678646597
2,2, 1, 2, 0,24, 0.00,60.00,Monday
9,432550000.949581
45,12577284.029609569
207,32702336.300943793
322,8478000.000000002
358,8406000.000000002
456,573284635.2223194
481,338393180.6187174
812,72000.0
937,0.0
962,0.0
1179,514766.6505869314
1332,0.0
1377,48877200.0
1414,0.0
1427,0.0
1450,0.0
1475,0.0
1488,0.0
1522,0.00031028453907607254
2,3, 1, 3, 0, 1, 0.00,60.00,Tuesday
9,320546208.80281409
45,12577284.029609569
207,32702336.300943793
322,8478000.000000002
358,8406000.000000002
456,564136020.7837714
481,226389388.47210367
812,72000.0
937,0.0
962,0.0
1179,257843.17155923253
1332,0.0
1377,48877200.0
1414,0.0
1427,0.0
1450,0.0
1475,0.0
1488,0.0
1522,0.00015703912739368768
2,3, 1, 3, 0, 2, 0.00,60.00,Tuesday
9,293655479.83031657
45,12577284.029609569
207,32702336.300943793
322,12597510.121845205
358,8406000.000000002
456,462163362.38313916
481,199498659.49956919
812,4191510.121845203
937,0.0
962,0.0
1179,322303.9370774481
1332,0.0
1377,48877200.0
1414,0.0
1427,0.0
1450,0.0
1475,0.0
1488,0.0
1522,0.00019400735009015546
2,3, 1, 3, 0, 3, 0.00,60.00,Tuesday
9,291040498.8951341
45,12577284.029609569
207,32702336.300943793
322,8478000.000000002
358,8406000.000000002
456,455849803.4810595
481,196883678.56438694
812,72000.0
937,0.0
962,0.0
1179,322303.9647227897
1332,0.0
1377,48877200.0
1414,0.0
1427,0.0
1450,0.0
1475,0.0
1488,0.0
1522,0.00019376709798710646
2,3, 1, 3, 0, 4, 0.00,60.00,Tuesday
9,318843117.5054476
45,12577284.029609569
207,32702336.300943793
322,54976057.69617066
358,8406000.000000002
456,454901965.8024089
481,195072332.81732614
812,72000.0
937,27990445.08866102
962,0.0
1179,257843.17194562389
1332,29613964.35741142
1377,48877200.0
1414,0.0
1427,0.0
1450,36268485.00301312
1475,46498057.69617066
1488,0.0
1522,0.00015665441704923447
2,3, 1, 3, 0, 5, 0.00,60.00,Tuesday
9,413010804.78942957
45,12577284.029609569
207,32702336.300943793
322,100086457.32218045
358,8406000.000000002
456,902498083.7564201
481,274433037.922603
812,4191380.9942643565
937,52546613.54444001
962,0.0
1179,257843.1724589402
1332,44420946.53611714
1377,48877200.0
1414,0.0
1427,0.0
1450,68241479.53577456
1475,87489076.3279161
1488,0.0
1522,0.00015597951283860268
2,3, 1, 3, 0, 6, 0.00,60.00,Tuesday
9,410172170.0769937
45,12577284.029609569
207,32702336.300943793
322,111501115.17199388
358,8406000.000000002
456,900083377.799928
481,271594403.2101685
812,72000.0
937,62044896.966397318
962,0.0
1179,257843.1719425547
1332,44420946.53611714
1377,48877200.0
1414,0.0
1427,0.0
1450,80358029.83415523
1475,103023115.17199388
1488,0.0
1522,0.00015473878530625502
2,3, 1, 3, 0, 7, 0.00,60.00,Tuesday
9,558226457.3516378
45,50309136.11843827
207,67291072.60188759
322,1565536854.720644
358,16812000.000000005
456,960990192.1791926
481,287955741.0724872
812,72000.0
937,716799383.5952431
962,0.0
1179,257843.171747057
1332,103793307.55866869
1377,48877200.0
1414,0.0
1427,0.0
1450,1209525527.1417118
1475,1548652854.720644
1488,0.0
1522,0.00015610673013613863
2,3, 1, 3, 0, 8, 0.00,60.00,Tuesday
9,527175614.71222177
45,50309136.11843827
207,67291072.60188759
322,1451467620.2219234
358,16812000.000000005
456,1036005523.2293735
481,293562798.4326442
812,4192348.8738786678
937,622164309.4373255
962,0.0
1179,966910.8266201305
1332,103793307.55866869
1377,12219300.0
1414,0.0
1427,0.0
1450,1116947753.4217048
1475,1430463271.3480447
1488,0.0
1522,0.0005829714253804926
2,3, 1, 3, 0, 9, 0.00,60.00,Tuesday
9,755796419.2400304
45,125772840.29609567
207,116344577.05330327
322,1347979306.273128
358,29420999.999999998
456,909166236.4180083
481,409885694.33106359
812,4192716.6062300589
937,534190201.2927808
962,19787712.89721002
1179,1482598.163211938
1332,103793307.55866869
1377,0.0
1414,0.0
1427,0.0
1450,1026008031.0786135
1475,1314365589.666898
1488,0.0
1522,0.0008991910504391892
2,3, 1, 3, 0,10, 0.00,60.00,Tuesday
9,842054830.2036885
45,226391112.5329722
207,149046913.35424707
322,1224573928.3264094
358,37827000.0
456,1023351200.17192
481,362823496.75655606
812,72000.0
937,448136256.8409114
962,43747366.95378618
1179,2062730.6431674406
1332,103793307.55866869
1377,0.0
1414,0.0
1427,0.0
1450,926083382.5895937
1475,1186674928.3264094
1488,0.0
1522,0.001244356186413983
2,3, 1, 3, 0,11, 0.00,60.00,Tuesday
9,807301297.7424655
45,226391112.5329722
207,149046913.35424707
322,1172707539.4198168
358,37827000.0
456,894831815.5844017
481,328069964.2949803
812,4194342.707495246
937,417032317.5853524
962,48730232.058552529
1179,2642880.61522344
1332,103793307.55866869
1377,0.0
1414,0.0
1427,0.0
1450,882315467.1597607
1475,1130686196.7123216
1488,0.0
1522,0.0015970534173084328
2,3, 1, 3, 0,12, 0.00,60.00,Tuesday
9,917718942.3773149
45,226391112.5329722
207,149046913.35424707
322,1110481704.404291
358,37827000.0
456,889788132.606673
481,438487608.92921009
812,8319644.404158233
937,383504708.84405305
962,53432736.08783979
1179,3674264.702355814
1332,103793307.55866869
1377,0.0
1414,0.0
1427,0.0
1450,830459709.5665163
1475,1064335060.0001326
1488,0.0
1522,0.002216752706879676
2,3, 1, 3, 0,13, 0.00,60.00,Tuesday
9,844396790.9388398
45,226391112.5329722
207,149046913.35424707
322,1066248243.0314391
358,37827000.0
456,1068770073.5286871
481,365165457.49053886
812,4196430.244638655
937,365927724.19308796
962,55011020.73471
1179,3996504.832262385
1332,103793307.55866869
1377,0.0
1414,0.0
1427,0.0
1450,799110490.2706299
1475,1024224812.7868004
1488,0.0
1522,0.0024128832160432939
2,3, 1, 3, 0,14, 0.00,60.00,Tuesday
9,833852786.0567619
45,226391112.5329722
207,149046913.35424707
322,1047995163.733278
358,37827000.0
456,1013665491.700288
481,354621452.60849556
812,8319148.021965848
937,352539770.02452197
962,55480710.198004927
1179,3932038.1520903578
1332,103793307.55866869
1377,0.0
1414,0.0
1427,0.0
1450,781646306.7100148
1475,1001849015.7113123
1488,0.0
1522,0.002378183634908074
2,3, 1, 3, 0,15, 0.00,60.00,Tuesday
9,820045063.4325519
45,226391112.5329722
207,149046913.35424707
322,1031961762.3421006
358,37827000.0
456,956608872.7069762
481,340813729.9847192
812,4194583.870925644
937,343245089.5547849
962,56036341.95536276
1179,3222956.3482173548
1332,103793307.55866869
1377,0.0
1414,0.0
1427,0.0
1450,772348919.4161131
1475,989940178.4711752
1488,0.0
1522,0.0019445897161818132
2,3, 1, 3, 0,16, 0.00,60.00,Tuesday
9,807762412.4363667
45,226391112.5329722
207,149046913.35424707
322,1015435120.9659476
358,37827000.0
456,897205491.211549
481,328531078.9887277
812,4194626.294069968
937,330345457.38112947
962,56880687.8363629
1179,2900720.539173384
1332,103793307.55866869
1377,0.0
1414,0.0
1427,0.0
1450,759448243.7174735
1475,973413494.6718776
1488,0.0
1522,0.0017509453203415399
2,3, 1, 3, 0,17, 0.00,60.00,Tuesday
9,844466056.557517
45,226391112.5329722
207,149046913.35424707
322,1020284362.9086025
358,37827000.0
456,897440798.0749931
481,328576823.1098383
812,4195068.228985937
937,334046548.2428594
962,56877648.06512223
1179,2965157.0691220636
1332,103793307.55866869
1377,36657900.0
1414,0.0
1427,0.0
1450,763227583.8930174
1475,978262294.6796165
1488,0.0
1522,0.0017906305146475109
2,3, 1, 3, 0,18, 0.00,60.00,Tuesday
9,856671742.2480161
45,226391112.5329722
207,149046913.35424707
322,1035011191.5253477
358,37827000.0
456,897369578.3248159
481,328563208.80029717
812,4194689.25130788
937,345573556.07160988
962,56466279.70296507
1179,3029634.9067228727
1332,103793307.55866869
1377,48877200.0
1414,0.0
1427,0.0
1450,774717194.0701484
1475,992989502.2740398
1488,0.0
1522,0.0018307077186430178
2,3, 1, 3, 0,19, 0.00,60.00,Tuesday
9,854005539.5598899
45,150927408.3553148
207,132695745.20377517
322,1061290282.3298721
358,33624000.00000001
456,915205566.0912924
481,417711878.4404954
812,4194626.095946221
937,368277324.1639565
962,51302398.36810654
1179,2707351.6836293188
1332,103793307.55866869
1377,48877200.0
1414,0.0
1427,0.0
1450,798534797.6957393
1475,1023471656.233926
1488,0.0
1522,0.0016357857651044896
2,3, 1, 3, 0,20, 0.00,60.00,Tuesday
9,772253507.7434316
45,150927408.3553148
207,132695745.20377517
322,1093871792.5985132
358,33624000.00000001
456,990884057.7296418
481,335959846.6243499
812,4193957.1524793666
937,390122303.0988791
962,48612174.51651865
1179,2191663.5737810225
1332,103793307.55866869
1377,48877200.0
1414,0.0
1427,0.0
1450,824006477.324417
1475,1056053835.4460337
1488,0.0
1522,0.001322894692172591
2,3, 1, 3, 0,21, 0.00,60.00,Tuesday
9,684337889.9343098
45,125772840.29609567
207,116344577.05330327
322,1122651061.3694907
358,29420999.999999998
456,841280877.5895766
481,289549965.02495738
812,4193516.4787969568
937,406500320.7654742
962,39337724.995895858
1179,2127192.66100696
1332,103793307.55866869
1377,48877200.0
1414,0.0
1427,0.0
1450,849857099.7829733
1475,1089036544.8906937
1488,0.0
1522,0.001284755290358664
2,3, 1, 3, 0,22, 0.00,60.00,Tuesday
9,484232750.1661081
45,50309136.11843827
207,67291072.60188759
322,1037933114.1084302
358,16812000.000000005
456,548395723.5904265
481,213962033.88621456
812,4192616.788583178
937,327334230.20613279
962,16123436.06610542
1179,1482591.4255498448
1332,103793307.55866869
1377,48877200.0
1414,0.0
1427,0.0
1450,793953533.9106271
1475,1016928497.319847
1488,0.0
1522,0.0008989408074737085
2,3, 1, 3, 0,23, 0.00,60.00,Tuesday
9,287019914.79620787
45,12577284.029609569
207,32702336.300943793
322,8478000.000000002
358,8406000.000000002
456,483788526.2015755
481,192863094.4651512
812,72000.0
937,0.0
962,0.0
1179,837990.2975525538
1332,0.0
1377,48877200.0
1414,0.0
1427,0.0
1450,0.0
1475,0.0
1488,0.0
1522,0.0005033133055957536
2,3, 1, 3, 0,24, 0.00,60.00,Tuesday
9,415210050.931991
45,12577284.029609569
207,32702336.300943793
322,12597631.877432634
358,8406000.000000002
456,559312910.7923311
481,321053230.6011234
812,4191631.877432631
937,0.0
962,0.0
1179,515686.34089206249
1332,0.0
1377,48877200.0