Program Version,EnergyPlus, Version 9.2.0-921312fa1d, YMD=2020.12.22 17:56
1,5,Environment Title[],Latitude[deg],Longitude[deg],Time Zone[],Elevation[m]
2,8,Day of Simulation[],Month[],Day of Month[],DST Indicator[1=yes 0=no],Hour[],StartMinute[],EndMinute[],DayType
3,5,Cumulative Day of Simulation[],Month[],Day of Month[],DST Indicator[1=yes 0=no],DayType  ! When Daily Meters Requested
4,2,Cumulative Days of Simulation[],Month[]  ! When Monthly Meters Requested
5,1,Cumulative Days of Simulation[] ! When Run Period Meters Requested
6,1,Calendar Year of Simulation[] ! When Annual Meters Requested
9,1,Electricity:Facility [J] !Hourly
1083,1,Heating:Electricity [J] !Hourly
1024,1,Cooling:Electricity [J] !Hourly
45,1,InteriorLights:Electricity [J] !Hourly
974,1,ExteriorLights:Electricity [J] !Hourly
182,1,InteriorEquipment:Electricity [J] !Hourly
945,1,Fans:Electricity [J] !Hourly
1125,1,Pumps:Electricity [J] !Hourly
321,1,Gas:Facility [J] !Hourly
1070,1,Heating:Gas [J] !Hourly
345,1,WaterSystems:Gas [J] !Hourly
506,1,Heating:EnergyTransfer [J] !Hourly
531,1,Cooling:EnergyTransfer [J] !Hourly
796,1,WaterSystems:EnergyTransfer [J] !Hourly
1045,1,HeatingCoils:EnergyTransfer [J] !Hourly
1011,1,CoolingCoils:EnergyTransfer [J] !Hourly
End of Data Dictionary
1,RUNPERIOD 1,  41.98, -87.92,  -6.00, 201.00
2,1, 1, 1, 0, 1, 0.00,60.00,Holiday
9,20711302.081805167
45,990009.6523200001
182,5940057.91392
321,11918232.963034507
345,72000.0
506,14316683.518505617
531,0.0
796,66266.90267790991
945,5490434.515550625
974,8290800.0
1011,0.0
1024,0.0
1045,9476986.370427607
1070,11846232.963034507
1083,0.0
1125,0.000014538461538461542
2,1, 1, 1, 0, 2, 0.00,60.00,Holiday
9,20458365.254468174
45,990009.6523200001
182,5940057.91392
321,15522383.13437894
345,1631084.1207454648
506,15793588.387636414
531,0.0
796,66266.90267790991
945,5237497.688213631
974,8290800.0
1011,0.0
1024,0.0
1045,11113039.21090678
1070,13891299.013633475
1083,0.0
1125,0.000014538461538461542
2,1, 1, 1, 0, 3, 0.00,60.00,Holiday
9,21767739.67652158
45,990009.6523200001
182,5940057.91392
321,13573445.680254929
345,72000.0
506,16461512.126800999
531,0.0
796,66266.90267790991
945,6546872.110267038
974,8290800.0
1011,0.0
1024,0.0
1045,10801156.544203945
1070,13501445.680254929
1083,0.0
1125,0.000014538461538461542
2,1, 1, 1, 0, 4, 0.00,60.00,Holiday
9,20458365.254468174
45,990009.6523200001
182,5940057.91392
321,13912790.336809446
345,1631097.897250911
506,14561443.15139692
531,0.0
796,66266.90267790991
945,5237497.688213631
974,8290800.0
1011,0.0
1024,0.0
1045,9825353.951646828
1070,12281692.439558534
1083,0.0
1125,0.000014538461538461542
2,1, 1, 1, 0, 5, 0.00,60.00,Holiday
9,21767739.67652158
45,990009.6523200001
182,5940057.91392
321,15769984.414883826
345,1631107.323498997
506,16962081.651940254
531,0.0
796,66266.90267790991
945,6546872.110267038
974,8290800.0
1011,0.0
1024,0.0
1045,11311101.673107865
1070,14138877.091384832
1083,0.0
1125,0.000014538461538461542
2,1, 1, 1, 0, 6, 0.00,60.00,Holiday
9,20458365.254468174
45,990009.6523200001
182,5940057.91392
321,12788998.922120477
345,72000.0
506,14891211.736520499
531,0.0
796,115967.07968634236
945,5237497.688213631
974,8290800.0
1011,0.0
1024,0.0
1045,10173599.137696382
1070,12716998.922120477
1083,0.0
1125,0.000014538461538461542
2,1, 1, 1, 0, 7, 0.00,60.00,Holiday
9,21767739.67652158
45,990009.6523200001
182,5940057.91392
321,16407157.167504419
345,1631031.3561842538
506,17468565.86509852
531,0.0
796,66266.90267790991
945,6546872.110267038
974,8290800.0
1011,0.0
1024,0.0
1045,11820900.649056133
1070,14776125.811320166
1083,0.0
1125,0.000014538461538461542
2,1, 1, 1, 0, 8, 0.00,60.00,Holiday
9,14931165.25446817
45,990009.6523200001
182,5940057.91392
321,14335712.520719398
345,1631103.4916894476
506,14870702.61195992
531,0.0
796,66266.90267790991
945,5237497.688213631
974,2763600.0
1011,0.0
1024,0.0
1045,10163687.223223962
1070,12704609.02902995
1083,0.0
1125,0.000014538461538461542
2,1, 1, 1, 0, 9, 0.00,60.00,Holiday
9,12905545.019056786
45,990009.6523200001
182,5940057.91392
321,12417908.484987688
345,72000.0
506,14994263.484094134
531,0.0
796,66266.90267790991
945,5975477.4528022459
974,0.0
1011,0.0
1024,0.0
1045,9876726.78799015
1070,12345908.484987688
1083,0.0
1125,0.000014538461538461542
2,1, 1, 1, 0,10, 0.00,60.00,Holiday
9,9904457.89782357
45,990009.6523200001
182,5940057.91392
321,7200940.15240468
345,1631118.60129672
506,7244093.93711127
531,0.0
796,66266.90267790991
945,2974390.3315690329
974,0.0
1011,0.0
1024,0.0
1045,4455857.240886368
1070,5569821.55110796
1083,0.0
1125,0.000014538461538461542
2,1, 1, 1, 0,11, 0.00,60.00,Holiday
9,10648055.480715828
45,990009.6523200001
182,5940057.91392
321,8643640.49651622
345,1631101.976705786
506,8960338.073516643
531,0.0
796,66266.90267790991
945,3717987.9144612906
974,0.0
1011,0.0
1024,0.0
1045,5610030.815848347
1070,7012538.519810433
1083,0.0
1125,0.000014538461538461542
2,1, 1, 1, 0,12, 0.00,60.00,Holiday
9,9904457.89782357
45,990009.6523200001
182,5940057.91392
321,4133615.836622102
345,72000.0
506,5965723.552407358
531,0.0
796,99400.35401686485
945,2974390.3315690329
974,0.0
1011,0.0
1024,0.0
1045,3249292.6692976818
1070,4061615.836622102
1083,0.0
1125,0.000014538461538461542
2,1, 1, 1, 0,13, 0.00,60.00,Holiday
9,10648055.480715828
45,990009.6523200001
182,5940057.91392
321,6449728.437915511
345,1631069.8501286533
506,7097768.596862162
531,0.0
796,99400.35401686483
945,3717987.914461291
974,0.0
1011,0.0
1024,0.0
1045,3854926.8702294875
1070,4818658.587786858
1083,0.0
1125,0.000014538461538461542
2,1, 1, 1, 0,14, 0.00,60.00,Holiday
9,9904457.89782357
45,990009.6523200001
182,5940057.91392
321,4648159.844905775
345,1631130.4763473834
506,5159234.8862203429
531,0.0
796,149100.53102529728
945,2974390.3315690329
974,0.0
1011,0.0
1024,0.0
1045,2413623.4948467134
1070,3017029.3685583916
1083,0.0
1125,0.000014538461538461542
2,1, 1, 1, 0,15, 0.00,60.00,Holiday
9,10648055.480715828
45,990009.6523200001
182,5940057.91392
321,4048267.6020697096
345,72000.0
506,6468715.539321749
531,0.0
796,99400.35401686485
945,3717987.914461291
974,0.0
1011,0.0
1024,0.0
1045,3181014.081655768
1070,3976267.6020697096
1083,0.0
1125,0.000014538461538461542
2,1, 1, 1, 0,16, 0.00,60.00,Holiday
9,9904457.89782357
45,990009.6523200001
182,5940057.91392
321,4668400.841305242
345,1631008.063881597
506,5179424.153522676
531,0.0
796,66266.90267790991
945,2974390.3315690329
974,0.0
1011,0.0
1024,0.0
1045,2429914.2219389157
1070,3037392.777423645
1083,0.0
1125,0.000014538461538461542
2,1, 1, 1, 0,17, 0.00,60.00,Holiday
9,16175255.48071583
45,990009.6523200001
182,5940057.91392
321,6400597.220578632
345,1631092.4386996262
506,7066892.568530232
531,0.0
796,66266.90267790991
945,3717987.914461291
974,5527200.0
1011,0.0
1024,0.0
1045,3815603.8255032065
1070,4769504.781879007
1083,0.0
1125,0.000014538461538461542
2,1, 1, 1, 0,18, 0.00,60.00,Holiday
9,18704412.664081977
45,990009.6523200001
182,5940057.91392
321,3893089.868709523
345,72000.0
506,6217396.178075958
531,0.0
796,66266.90267790991
945,3483545.0978274366
974,8290800.0
1011,0.0
1024,0.0
1045,3056871.894967619
1070,3821089.868709523
1083,0.0
1125,0.000014538461538461542
2,1, 1, 1, 0,19, 0.00,60.00,Holiday
9,19957165.01323264
45,990009.6523200001
182,5940057.91392
321,7617127.929582948
345,1631071.6788141186
506,8999175.530337085
531,0.0
796,66266.90267790991
945,4736297.446978098
974,8290800.0
1011,0.0
1024,0.0
1045,4788845.000615062
1070,5986056.250768828
1083,0.0
1125,0.000014538461538461542
2,1, 1, 1, 0,20, 0.00,60.00,Holiday
9,18895345.701428877
45,990009.6523200001
182,5940057.91392
321,5864034.095884264
345,1631090.422611395
506,6729412.981614335
531,0.0
796,66266.90267790991
945,3674478.135174338
974,8290800.0
1011,0.0
1024,0.0
1045,3386354.9386182955
1070,4232943.67327287
1083,0.0
1125,0.000014538461538461542
2,1, 1, 1, 0,21, 0.00,60.00,Holiday
9,20084453.70479724
45,990009.6523200001
182,5940057.91392
321,5818001.285154583
345,72000.0
506,8854055.594785009
531,0.0
796,66266.90267790991
945,4863586.138542699
974,8290800.0
1011,0.0
1024,0.0
1045,4596801.0281236669
1070,5746001.285154583
1083,0.0
1125,0.000014538461538461542
2,1, 1, 1, 0,22, 0.00,60.00,Holiday
9,19065063.956848347
45,990009.6523200001
182,5940057.91392
321,5773241.698973496
345,1631134.854382947
506,6818551.906962578
531,0.0
796,115967.07968634236
945,3844196.390593806
974,8290800.0
1011,0.0
1024,0.0
1045,3313685.4756724399
1070,4142106.84459055
1083,0.0
1125,0.000014538461538461542
2,1, 1, 1, 0,23, 0.00,60.00,Holiday
9,20211742.396361844
45,990009.6523200001
182,5940057.91392
321,7483612.91655909
345,1631078.297813462
506,9129444.800671949
531,0.0
796,66266.90267790991
945,4990874.8301073
974,8290800.0
1011,0.0
1024,0.0
1045,4682027.694996501
1070,5852534.618745628
1083,0.0
1125,0.000014538461538461542
2,1, 1, 1, 0,24, 0.00,60.00,Holiday
9,19213567.43034038
45,990009.6523200001
182,5940057.91392
321,4904928.411794919
345,72000.0
506,7558103.892737975
531,0.0
796,66266.90267790991
945,3992699.86408584
974,8290800.0
1011,0.0
1024,0.0
1045,3866342.7294359349
1070,4832928.411794919
1083,0.0
1125,0.000014538461538461542
2,2, 1, 2, 0, 1, 0.00,60.00,Monday
9,22191761.70100184
45,990009.6523200001
182,7920077.218560001
321,7130717.611074001
345,1631107.8365918096
506,8706779.021931638
531,0.0
796,83009.4022977308
945,4990874.8301073
974,8290800.0
1011,0.0
1024,0.0
1045,4399687.819585754
1070,5499609.774482191
1083,0.0
1125,0.000014538461538461542
2,2, 1, 2, 0, 2, 0.00,60.00,Monday
9,21193586.734980383
45,990009.6523200001
182,7920077.218560001
321,6280356.105154041
345,1631115.113819328
506,7180270.128023954
531,0.0
796,83009.4022977308
945,3992699.86408584
974,8290800.0
1011,0.0
1024,0.0
1045,3719392.7930677707
1070,4649240.991334713
1083,0.0
1125,0.000014538461538461542
2,2, 1, 2, 0, 3, 0.00,60.00,Monday
9,22191761.70100184
45,990009.6523200001
182,7920077.218560001
321,5304289.666118208
345,72000.0
506,8272754.139105885
531,0.0
796,83009.4022977308
945,4990874.8301073
974,8290800.0
1011,0.0
1024,0.0
1045,4185831.732894567
1070,5232289.666118208
1083,0.0
1125,0.000014538461538461542
2,2, 1, 2, 0, 4, 0.00,60.00,Monday
9,21193586.734980383
45,990009.6523200001
182,7920077.218560001
321,6381188.740062126
345,1631085.2711100118
506,7268546.009027456
531,0.0
796,83009.4022977308
945,3992699.86408584
974,8290800.0
1011,0.0
1024,0.0
1045,3800082.7751616907
1070,4750103.468952114
1083,0.0
1125,0.000014538461538461542
2,2, 1, 2, 0, 5, 0.00,60.00,Monday
9,22191761.70100184
45,990009.6523200001
182,7920077.218560001
321,7796660.10900874
345,1631077.550620491
506,9410387.63020608
531,0.0
796,83009.4022977308
945,4990874.8301073
974,8290800.0
1011,0.0
1024,0.0
1045,4932466.046710599
1070,6165582.558388249
1083,0.0
1125,0.000014538461538461542
2,2, 1, 2, 0, 6, 0.00,60.00,Monday
9,22183596.38730038
45,1980019.3046400003
182,7920077.218560001
321,4027653.396784283
345,72000.0
506,6852870.526870528
531,0.0
796,132815.04367636925
945,3992699.86408584
974,8290800.0
1011,0.0
1024,0.0
1045,3164522.717427427
1070,3955653.396784283
1083,0.0
1125,0.000014538461538461542
2,2, 1, 2, 0, 7, 0.00,60.00,Monday
9,26047143.055534986
45,1980019.3046400003
182,7920077.218560001
321,101774577.72713024
345,1631022.3554331314
506,86436299.27399938
531,0.0
796,116213.16321682312
945,7856246.532320446
974,8290800.0
1011,0.0
1024,0.0
1045,80114844.29735771
1070,100143555.37169713
1083,0.0
1125,0.000014538461538461542
2,2, 1, 2, 0, 8, 0.00,60.00,Monday
9,24479981.664814988
45,5940057.91392
182,7920077.218560001
321,92731134.9748718
345,1631113.1387528787
506,55341416.53870745
531,0.0
796,315435.72873137696
945,7856246.532320446
974,2763600.0
1011,0.0
1024,0.0
1045,72880017.46889514
1070,91100021.83611892
1083,0.0
1125,0.000014538461538461542
2,2, 1, 2, 0, 9, 0.00,60.00,Monday
9,43496594.01585499
45,17820173.74176
182,17820173.74176
321,59212940.00563315
345,1631190.4664993874
506,28935670.212895164
531,0.0
796,581065.8160841153
945,7856246.532320446
974,0.0
1011,0.0
1024,0.0
1045,46065399.63130701
1070,57581749.539133768
1083,0.0
1125,0.000014538461538461542
2,2, 1, 2, 0,10, 0.00,60.00,Monday
9,43496594.01585499
45,17820173.74176
182,17820173.74176
321,46949295.04264367
345,1631319.0607188368
506,19829145.823917673
531,0.0
796,630871.4574627539
945,7856246.532320446
974,0.0
1011,0.0
1024,0.0
1045,36254380.78553987
1070,45317975.98192483
1083,0.0
1125,0.000014538461538461542
2,2, 1, 2, 0,11, 0.00,60.00,Monday
9,43496594.01585499
45,17820173.74176
182,17820173.74176
321,38967816.40190666
345,1631341.7047304488
506,14513939.536696453
531,22917.10728052476
796,647473.3379223
945,7856246.532320446
974,0.0
1011,0.0
1024,0.0
1045,29869179.757740968
1070,37336474.69717621
1083,0.0
1125,0.000014538461538461542
2,2, 1, 2, 0,12, 0.00,60.00,Monday
9,43496594.01585499
45,17820173.74176
182,17820173.74176
321,33064659.809781024
345,1631463.8173847453
506,10924298.907463626
531,620086.4060964572
796,780288.3815986691
945,7856246.532320446
974,0.0
1011,0.0
1024,0.0
1045,25146556.79391703
1070,31433195.99239628
1083,0.0
1125,0.000014538461538461542
2,2, 1, 2, 0,13, 0.00,60.00,Monday
9,41516574.71121498
45,17820173.74176
182,15840154.437120002
321,35757946.07590687
345,3190945.6227368589
506,11353052.883210835
531,147125.24283888596
796,946307.1861941306
945,7856246.532320446
974,0.0
1011,0.0
1024,0.0
1045,26053600.362536014
1070,32567000.453170018
1083,0.0
1125,0.000014538461538461542
2,2, 1, 2, 0,14, 0.00,60.00,Monday
9,43496594.01585499
45,17820173.74176
182,17820173.74176
321,28694105.31804665
345,1631316.5824986194
506,7356460.96534623
531,1741918.3322152196
796,896501.5448154924
945,7856246.532320446
974,0.0
1011,0.0
1024,0.0
1045,21650230.988438429
1070,27062788.735548036
1083,0.0
1125,0.000014538461538461542
2,2, 1, 2, 0,15, 0.00,60.00,Monday
9,43496594.01585499
45,17820173.74176
182,17820173.74176
321,28974183.38890226
345,1631165.1672853046
506,6718423.933949521
531,2136792.6870442538
796,564463.9356245693
945,7856246.532320446
974,0.0
1011,0.0
1024,0.0
1045,21874414.577293569
1070,27343018.22161696
1083,0.0
1125,0.000014538461538461542
2,2, 1, 2, 0,16, 0.00,60.00,Monday
9,43496594.01585499
45,17820173.74176
182,17820173.74176
321,27218678.153638547
345,1631204.8498256426
506,6225348.418108821
531,2519671.682221987
796,547862.0551650231
945,7856246.532320446
974,0.0
1011,0.0
1024,0.0
1045,20469978.64305032
1070,25587473.303812904
1083,0.0
1125,0.000014538461538461542
2,2, 1, 2, 0,17, 0.00,60.00,Monday
9,49023794.01585499
45,17820173.74176
182,17820173.74176
321,25825476.721346946
345,1631397.0996496469
506,6038999.46055728
531,2863137.323102416
796,730482.7402200309
945,7856246.532320446
974,5527200.0
1011,0.0
1024,0.0
1045,19355263.697357838
1070,24194079.62169729
1083,0.0
1125,0.000014538461538461542
2,2, 1, 2, 0,18, 0.00,60.00,Monday
9,35947239.57873499
45,9900096.523200002
182,9900096.523200002
321,40849607.804518599
345,1631178.8382269678
506,14404772.108845216
531,33445.31517384239
796,431648.89194820009
945,7856246.532320446
974,8290800.0
1011,0.0
1024,0.0
1045,31374743.173033306
1070,39218428.96629163
1083,0.0
1125,0.000014538461538461542
2,2, 1, 2, 0,19, 0.00,60.00,Monday
9,30007181.664814988
45,5940057.91392
182,7920077.218560001
321,46437058.320800308
345,1631217.603503529
506,19076701.312170607
531,0.0
796,348639.4896504693
945,7856246.532320446
974,8290800.0
1011,0.0
1024,0.0
1045,35844672.573837418
1070,44805840.717296767
1083,0.0
1125,0.000014538461538461542
2,2, 1, 2, 0,20, 0.00,60.00,Monday
9,30007181.664814988
45,5940057.91392
182,7920077.218560001
321,45722161.04796412
345,1631148.1269572
506,19436071.13076312
531,0.0
796,249028.2068931923
945,7856246.532320446
974,8290800.0
1011,0.0
1024,0.0
1045,35272810.33680554
1070,44091012.92100692
1083,0.0
1125,0.000014538461538461542
2,2, 1, 2, 0,21, 0.00,60.00,Monday
9,28027162.36017499
45,3960038.6092800006
182,7920077.218560001
321,45826381.279202569
345,1631107.8864647833
506,20172029.02601295
531,0.0
796,282231.9678122847
945,7856246.532320446
974,8290800.0
1011,0.0
1024,0.0
1045,35356218.71419023
1070,44195273.392737779
1083,0.0
1125,0.000014538461538461542
2,2, 1, 2, 0,22, 0.00,60.00,Monday
9,28027162.36017499
45,3960038.6092800006
182,7920077.218560001
321,43286411.53639731
345,72000.0
506,20018404.80071966
531,0.0
796,132815.04367636925
945,7856246.532320446
974,8290800.0
1011,0.0
1024,0.0
1045,34571529.22911785
1070,43214411.53639731
1083,0.0
1125,0.000014538461538461542
2,2, 1, 2, 0,23, 0.00,60.00,Monday
9,18190896.523214539
45,1980019.3046400003
182,7920077.218560001
321,1631111.8068575424
345,1631111.8068575424
506,0.0
531,0.0
796,83009.40229773079
945,0.0
974,8290800.0
1011,0.0
1024,0.0
1045,0.0
1070,0.0
1083,0.0
1125,0.000014538461538461542
2,2, 1, 2, 0,24, 0.00,60.00,Monday
9,17200886.87089454
45,990009.6523200001
182,7920077.218560001
321,1631087.3843560238
345,1631087.3843560238
506,0.0
531,0.0
796,83009.4022977308
945,0.0
974,8290800.0
1011,0.0
1024,0.0
1045,0.0
1070,0.0
1083,0.0
1125,0.000014538461538461542
2,3, 1, 3, 0, 1, 0.00,60.00,Tuesday
9,17200886.87089454
45,990009.6523200001
182,7920077.218560001
321,72000.0
345,72000.0
506,0.0
531,0.0
796,83181.84411438593
945,0.0
974,8290800.0
1011,0.0
1024,0.0
1045,0.0
1070,0.0
1083,0.0
1125,0.000014538461538461542
2,3, 1, 3, 0, 2, 0.00,60.00,Tuesday
9,17200886.87089454
45,990009.6523200001
182,7920077.218560001
321,1631080.0215530075
345,1631080.0215530075
506,0.0
531,0.0
796,83181.84411438593
945,0.0
974,8290800.0
1011,0.0
1024,0.0
1045,0.0
1070,0.0
1083,0.0
1125,0.000014538461538461542
2,3, 1, 3, 0, 3, 0.00,60.00,Tuesday
9,17200886.87089454
45,990009.6523200001
182,7920077.218560001
321,1631072.5626878057
345,1631072.5626878057
506,0.0
531,0.0
796,83181.84411438593
945,0.0
974,8290800.0
1011,0.0
1024,0.0
1045,0.0
1070,0.0
1083,0.0
1125,0.000014538461538461542
2,3, 1, 3, 0, 4, 0.00,60.00,Tuesday
9,17200886.87089454
45,990009.6523200001
182,7920077.218560001
321,72000.0
345,72000.0
506,0.0
531,0.0
796,83181.84411438593
945,0.0
974,8290800.0
1011,0.0
1024,0.0
1045,0.0
1070,0.0
1083,0.0
1125,0.000014538461538461542
2,3, 1, 3, 0, 5, 0.00,60.00,Tuesday
9,17200886.87089454
45,990009.6523200001
182,7920077.218560001
321,1631065.0509416389
345,1631065.0509416389
506,0.0
531,0.0
796,83181.84411438593
945,0.0
974,8290800.0
1011,0.0
1024,0.0
1045,0.0
1070,0.0
1083,0.0
1125,0.000014538461538461542
2,3, 1, 3, 0, 6, 0.00,60.00,Tuesday
9,18190896.523214539
45,1980019.3046400003
182,7920077.218560001
321,1631107.3147935195
345,1631107.3147935195
506,0.0
531,0.0
796,133090.95058301747
945,0.0
974,8290800.0
1011,0.0
1024,0.0
1045,0.0
1070,0.0
1083,0.0
1125,0.000014538461538461542
2,3, 1, 3, 0, 7, 0.00,60.00,Tuesday
9,26047143.055534986
45,1980019.3046400003
182,7920077.218560001
321,66286882.17117925
345,72000.0
506,58742459.397724878
531,0.0
796,116454.58176014028
945,7856246.532320446
974,8290800.0
1011,0.0
1024,0.0
1045,52971905.7369434
1070,66214882.17117925
1083,0.0
1125,0.000014538461538461542
2,3, 1, 3, 0, 8, 0.00,60.00,Tuesday
9,24479981.664814988
45,5940057.91392
182,7920077.218560001
321,73811016.6501251
345,1631110.3059795926
506,37040419.58140464
531,0.0
796,316091.00763466648
945,7856246.532320446
974,2763600.0
1011,0.0
1024,0.0
1045,57743925.075316417
1070,72179906.3441455
1083,0.0
1125,0.000014538461538461542
2,3, 1, 3, 0, 9, 0.00,60.00,Tuesday
9,43496594.01585499
45,17820173.74176
182,17820173.74176
321,47186929.27548525
345,1631272.550503733
506,15593787.413352546
531,607383.1972643096
796,582272.9088007013
945,7856246.532320446
974,0.0
1011,0.0
1024,0.0
1045,36444525.37998521
1070,45555656.72498152
1083,0.0
1125,0.000014538461538461542
2,3, 1, 3, 0,10, 0.00,60.00,Tuesday
9,43496594.01585499
45,17820173.74176
182,17820173.74176
321,40032730.775521557
345,1631372.0320223179
506,10486693.95366833
531,1760174.5439789324
796,632182.0152693329
945,7856246.532320446
974,0.0
1011,0.0
1024,0.0
1045,30721086.99479939
1070,38401358.743499238
1083,0.0
1125,0.000014538461538461542
2,3, 1, 3, 0,11, 0.00,60.00,Tuesday
9,43496594.01585499
45,17820173.74176
182,17820173.74176
321,36661248.82895504
345,3190502.338165462
506,7513243.609524471
531,2389901.5708194079
796,648818.3840922101
945,7856246.532320446
974,0.0
1011,0.0
1024,0.0
1045,26776597.192631663
1070,33470746.490789575
1083,0.0
1125,0.000014538461538461542
2,3, 1, 3, 0,12, 0.00,60.00,Tuesday
9,43496594.01585499
45,17820173.74176
182,17820173.74176
321,31413936.218986446
345,1631276.6036988665
506,5644199.0183139429
531,2819976.761157223
796,781909.3346752274
945,7856246.532320446
974,0.0
1011,0.0
1024,0.0
1045,23826127.692230066
1070,29782659.61528758
1083,0.0
1125,0.000014538461538461542
2,3, 1, 3, 0,13, 0.00,60.00,Tuesday
9,41516574.71121498
45,17820173.74176
182,15840154.437120002
321,33471886.55673325
345,1631454.501569902
506,7102396.136017125
531,1997051.5962265596
796,948273.0229039991
945,7856246.532320446
974,0.0
1011,0.0
1024,0.0
1045,25472345.64413068
1070,31840432.055163348
1083,0.0
1125,0.000014538461538461542
2,3, 1, 3, 0,14, 0.00,60.00,Tuesday
9,43496594.01585499
45,17820173.74176
182,17820173.74176
321,26908053.714595766
345,1631312.4169899312
506,3391577.6540262068
531,3293107.3860354956
796,898363.9164353679
945,7856246.532320446
974,0.0
1011,0.0
1024,0.0
1045,20221393.038084669
1070,25276741.297605836
1083,0.0
1125,0.000014538461538461542
2,3, 1, 3, 0,15, 0.00,60.00,Tuesday
9,43496594.01585499
45,17820173.74176
182,17820173.74176
321,25995798.822738068
345,1631271.8631277905
506,2811460.482309874
531,3443060.788621473
796,565636.5399778242
945,7856246.532320446
974,0.0
1011,0.0
1024,0.0
1045,19491621.567688228
1070,24364526.959610277
1083,0.0
1125,0.000014538461538461542
2,3, 1, 3, 0,16, 0.00,60.00,Tuesday
9,43496594.01585499
45,17820173.74176
182,17820173.74176
321,25678789.583041118
345,1631305.369563388
506,2703036.564611727
531,3588293.1897851198
796,549000.1711549469
945,7856246.532320446
974,0.0
1011,0.0
1024,0.0
1045,19237987.370782187
1070,24047484.21347773
1083,0.0
1125,0.000014538461538461542
2,3, 1, 3, 0,17, 0.00,60.00,Tuesday
9,49023794.01585499
45,17820173.74176
182,17820173.74176
321,27760940.648607799
345,3190849.6036059989
506,3257025.7470126396
531,3727744.300488378
796,732000.2282065961
945,7856246.532320446
974,5527200.0
1011,0.0
1024,0.0
1045,19656072.83600144
1070,24570091.045001799
1083,0.0
1125,0.000014538461538461542
2,3, 1, 3, 0,18, 0.00,60.00,Tuesday
9,35947239.57873499
45,9900096.523200002
182,9900096.523200002
321,40616449.43798362
345,1631249.128942645
506,11803933.5193469
531,738375.2371763818
796,432545.58939480679
945,7856246.532320446
974,8290800.0
1011,0.0
1024,0.0
1045,31188160.247232777
1070,38985200.30904097
1083,0.0
1125,0.000014538461538461542
2,3, 1, 3, 0,19, 0.00,60.00,Tuesday
9,30007181.664814988
45,5940057.91392
182,7920077.218560001
321,45777068.883928548
345,72000.0
506,16444793.245834794
531,0.0
796,349363.74528042078
945,7856246.532320446
974,8290800.0
1011,0.0
1024,0.0
1045,36564055.107142839
1070,45705068.883928548
1083,0.0
1125,0.000014538461538461542
2,3, 1, 3, 0,20, 0.00,60.00,Tuesday
9,30007181.664814988
45,5940057.91392
182,7920077.218560001
321,48959833.27700107
345,1631194.5328467133
506,17739097.33387316
531,0.0
796,249545.53234315775
945,7856246.532320446
974,8290800.0
1011,0.0
1024,0.0
1045,37862910.99532348
1070,47328638.74415435
1083,0.0
1125,0.000014538461538461542
2,3, 1, 3, 0,21, 0.00,60.00,Tuesday
9,28027162.36017499
45,3960038.6092800006
182,7920077.218560001
321,50804647.66252745
345,1631138.676901582
506,19207797.521617697
531,0.0
796,282818.2699889121
945,7856246.532320446
974,8290800.0
1011,0.0
1024,0.0
1045,39338807.188500698
1070,49173508.98562586
1083,0.0
1125,0.000014538461538461542
2,3, 1, 3, 0,22, 0.00,60.00,Tuesday
9,28027162.36017499
45,3960038.6092800006
182,7920077.218560001
321,51717875.240632507
345,1631100.57609925
506,19935334.953658146
531,0.0
796,133090.95058301747
945,7856246.532320446
974,8290800.0
1011,0.0
1024,0.0
1045,40069419.7316266
1070,50086774.66453326
1083,0.0
1125,0.000014538461538461542
2,3, 1, 3, 0,23, 0.00,60.00,Tuesday
9,18190896.523214539
45,1980019.3046400003
182,7920077.218560001
321,72000.0
345,72000.0
506,0.0
531,0.0
796,83181.84411438593
945,0.0
974,8290800.0
1011,0.0
1024,0.0
1045,0.0
1070,0.0
1083,0.0
1125,0.000014538461538461542
2,3, 1, 3, 0,24, 0.00,60.00,Tuesday
9,17200886.87089454
45,990009.6523200001
182,7920077.218560001
321,1631087.1331294669
345,1631087.1331294669
506,0.0
531,0.0
796,83181.84411438593
945,0.0
974,8290800.0
1011,0.0
1024,0.0
1045,0.0
1070,0.0
1083,0.0
1125,0.000014538461538461542
2,4, 1, 4, 0, 1, 0.00,60.00,Wednesday
9,17200886.87089454
45,990009.6523200001
182,7920077.218560001
321,1631079.8716054129
345,1631079.8716054129
506,0.0
531,0.0
796,83350.90273034208
945,0.0
974,8290800.0
1011,0.0
1024,0.0
1045,0.0
1070,0.0
1083,0.0
1125,0.000014538461538461542
2,4, 1, 4, 0, 2, 0.00,60.00,Wednesday
9,17200886.87089454
45,990009.6523200001
182,7920077.218560001
321,72000.0
345,72000.0
506,0.0
531,0.0
796,83350.90273034208
945,0.0
974,8290800.0
1011,0.0
1024,0.0
1045,0.0
1070,0.0
1083,0.0
1125,0.000014538461538461542
2,4, 1, 4, 0, 3, 0.00,60.00,Wednesday
9,17200886.87089454
45,990009.6523200001
182,7920077.218560001
321,1631072.5996869906
345,1631072.5996869906
506,0.0
531,0.0
796,83350.90273034208
945,0.0
974,8290800.0
1011,0.0
1024,0.0
1045,0.0
1070,0.0
1083,0.0
1125,0.000014538461538461542
2,4, 1, 4, 0, 4, 0.00,60.00,Wednesday
9,17200886.87089454
45,990009.6523200001
182,7920077.218560001
321,1631065.2861363914
345,1631065.2861363914
506,0.0
531,0.0
796,83350.90273034208
945,0.0
974,8290800.0
1011,0.0
1024,0.0
1045,0.0
1070,0.0
1083,0.0
1125,0.000014538461538461542
2,4, 1, 4, 0, 5, 0.00,60.00,Wednesday
9,17200886.87089454
45,990009.6523200001
182,7920077.218560001
321,72000.0
345,72000.0
506,0.0
531,0.0
796,83350.90273034208
945,0.0
974,8290800.0
1011,0.0
1024,0.0
1045,0.0
1070,0.0
1083,0.0
1125,0.000014538461538461542
2,4, 1, 4, 0, 6, 0.00,60.00,Wednesday
9,18190896.523214539
45,1980019.3046400003
182,7920077.218560001
321,1631080.102831176
345,1631080.102831176
506,0.0
531,0.0
796,133361.44436854727
945,0.0
974,8290800.0
1011,0.0
1024,0.0
1045,0.0
1070,0.0
1083,0.0
1125,0.000014538461538461542
2,4, 1, 4, 0, 7, 0.00,60.00,Wednesday
9,26047143.055534986
45,1980019.3046400003
182,7920077.218560001
321,71291832.31635812
345,1631117.05781409
506,61406713.04815199
531,0.0
796,116691.26382247893
945,7856246.532320446
974,8290800.0
1011,0.0
1024,0.0
1045,55728572.206835228
1070,69660715.25854403
1083,0.0
1125,0.000014538461538461542
2,4, 1, 4, 0, 8, 0.00,60.00,Wednesday
9,24479981.664814988
45,5940057.91392
182,7920077.218560001
321,74681742.4482657
345,1631125.6828835712
506,38299600.87364576
531,0.0
796,316733.4303752998
945,7856246.532320446
974,2763600.0
1011,0.0
1024,0.0
1045,58440493.41230569
1070,73050616.76538213
1083,0.0
1125,0.000014538461538461542
2,4, 1, 4, 0, 9, 0.00,60.00,Wednesday
9,43496594.01585499
45,17820173.74176
182,17820173.74176
321,45877183.50767426
345,1631244.7624255254
506,16265893.287762914
531,598827.4415485713
796,583456.3191123942
945,7856246.532320446
974,0.0
1011,0.0
1024,0.0
1045,35396750.996199
1070,44245938.745248738
1083,0.0
1125,0.000014538461538461542
2,4, 1, 4, 0,10, 0.00,60.00,Wednesday
9,43496594.01585499
45,17820173.74176
182,17820173.74176
321,37096762.03900874
345,1631375.8520436579
506,11074923.54906213
531,1795375.3392516585
796,633466.8607505997
945,7856246.532320446
974,0.0
1011,0.0
1024,0.0
1045,28372308.949572069
1070,35465386.18696508
1083,0.0
1125,0.000014538461538461542
2,4, 1, 4, 0,11, 0.00,60.00,Wednesday
9,43496594.01585499
45,17820173.74176
182,17820173.74176
321,32219152.999676244
345,1631402.4704639894
506,8033962.923380649
531,2415584.3350715937
796,650137.041296668
945,7856246.532320446
974,0.0
1011,0.0
1024,0.0
1045,24470200.423369808
1070,30587750.52921225
1083,0.0
1125,0.000014538461538461542
2,4, 1, 4, 0,12, 0.00,60.00,Wednesday
9,43496594.01585499
45,17820173.74176
182,17820173.74176
321,28702320.539790706
345,1631321.3039323998
506,6051077.173898689
531,2842190.0951350547
796,783498.4856652154
945,7856246.532320446
974,0.0
1011,0.0
1024,0.0
1045,21656799.38868665
1070,27070999.235858308
1083,0.0
1125,0.000014538461538461542
2,4, 1, 4, 0,13, 0.00,60.00,Wednesday
9,41516574.71121498
45,17820173.74176
182,15840154.437120002
321,32175115.043765945
345,3190791.2356800709
506,7396499.61624885
531,2022028.9927333194
796,950200.2911258994
945,7856246.532320446
974,0.0
1011,0.0
1024,0.0
1045,23187459.0464687
1070,28984323.808085875
1083,0.0
1125,0.000014538461538461542
2,4, 1, 4, 0,14, 0.00,60.00,Wednesday
9,43496594.01585499
45,17820173.74176
182,17820173.74176
321,24191217.21781636
345,1631436.0754615025
506,3800950.575877221
531,3321782.430934611
796,900189.7494876946
945,7856246.532320446
974,0.0
1011,0.0
1024,0.0
1045,18047824.91388389
1070,22559781.14235486
1083,0.0
1125,0.000014538461538461542
2,4, 1, 4, 0,15, 0.00,60.00,Wednesday
9,43496594.01585499
45,17820173.74176
182,17820173.74176
321,23809605.053000608
345,1631232.7581743845
506,3280238.0080743196
531,3453207.5489759214
796,566786.138566326
945,7856246.532320446
974,0.0
1011,0.0
1024,0.0
1045,17742697.835860984
1070,22178372.294826226
1083,0.0
1125,0.000014538461538461542
2,4, 1, 4, 0,16, 0.00,60.00,Wednesday
9,43496594.01585499
45,17820173.74176
182,17820173.74176
321,24154147.076733669
345,1631285.8105750555
506,3438233.249364183
531,3580136.9206865218
796,550115.9580202577
945,7856246.532320446
974,0.0
1011,0.0
1024,0.0
1045,18018289.012926889
1070,22522861.26615861
1083,0.0
1125,0.000014538461538461542
2,4, 1, 4, 0,17, 0.00,60.00,Wednesday
9,49023794.01585499
45,17820173.74176
182,17820173.74176
321,26547180.486628109
345,1631386.6115716599
506,4292591.894744378
531,3668699.1664970826
796,733487.9440270101
945,7856246.532320446
974,5527200.0
1011,0.0
1024,0.0
1045,19932635.100045157
1070,24915793.875056447
1083,0.0
1125,0.000014538461538461542
2,4, 1, 4, 0,18, 0.00,60.00,Wednesday
9,35947239.57873499