Program Version,EnergyPlus, Version 9.2.0-921312fa1d, YMD=2020.12.22 17:54
1,5,Environment Title[],Latitude[deg],Longitude[deg],Time Zone[],Elevation[m]
2,8,Day of Simulation[],Month[],Day of Month[],DST Indicator[1=yes 0=no],Hour[],StartMinute[],EndMinute[],DayType
3,5,Cumulative Day of Simulation[],Month[],Day of Month[],DST Indicator[1=yes 0=no],DayType  ! When Daily Meters Requested
4,2,Cumulative Days of Simulation[],Month[]  ! When Monthly Meters Requested
5,1,Cumulative Days of Simulation[] ! When Run Period Meters Requested
6,1,Calendar Year of Simulation[] ! When Annual Meters Requested
9,1,Electricity:Facility [J] !Hourly
1043,1,Heating:Electricity [J] !Hourly
984,1,Cooling:Electricity [J] !Hourly
45,1,InteriorLights:Electricity [J] !Hourly
934,1,ExteriorLights:Electricity [J] !Hourly
182,1,InteriorEquipment:Electricity [J] !Hourly
905,1,Fans:Electricity [J] !Hourly
1085,1,Pumps:Electricity [J] !Hourly
321,1,Gas:Facility [J] !Hourly
1030,1,Heating:Gas [J] !Hourly
345,1,WaterSystems:Gas [J] !Hourly
506,1,Heating:EnergyTransfer [J] !Hourly
531,1,Cooling:EnergyTransfer [J] !Hourly
756,1,WaterSystems:EnergyTransfer [J] !Hourly
1005,1,HeatingCoils:EnergyTransfer [J] !Hourly
971,1,CoolingCoils:EnergyTransfer [J] !Hourly
End of Data Dictionary
1,RUNPERIOD 1,  41.98, -87.92,  -6.00, 201.00
2,1, 1, 1, 0, 1, 0.00,60.00,Holiday
9,30070245.857928728
45,1792322.3073600005
182,5940057.91392
321,90369047.42954678
345,72000.0
506,79211067.32928609
531,0.0
756,66266.90267790991
905,12380265.636634184
934,9957600.0
971,0.0
984,0.0
1005,70431696.9950465
1030,90297047.42954678
1043,0.0
1085,0.000014538461538461542
2,1, 1, 1, 0, 2, 0.00,60.00,Holiday
9,27941619.29132729
45,1792322.3073600005
182,5940057.91392
321,118869692.21566734
345,1631071.5015375959
506,97674854.2195955
531,0.0
756,66266.90267790991
905,10251639.070032752
934,9957600.0
971,0.0
984,0.0
1005,91446124.1570212
1030,117238620.71412975
1043,0.0
1085,0.000014538461538461542
2,1, 1, 1, 0, 3, 0.00,60.00,Holiday
9,30504529.058835478
45,1792322.3073600005
182,5940057.91392
321,155147979.5401069
345,72000.0
506,125851415.09268922
531,0.0
756,66266.90267790991
905,12814548.83754094
934,9957600.0
971,0.0
984,0.0
1005,120959264.04128337
1030,155075979.5401069
1043,0.0
1085,0.000014538461538461542
2,1, 1, 1, 0, 4, 0.00,60.00,Holiday
9,27941619.29132729
45,1792322.3073600005
182,5940057.91392
321,117326808.48006325
345,1631044.866908466
506,96495444.01673503
531,0.0
756,66266.90267790991
905,10251639.070032752
934,9957600.0
971,0.0
984,0.0
1005,90242695.61826074
1030,115695763.61315479
1043,0.0
1085,0.000014538461538461542
2,1, 1, 1, 0, 5, 0.00,60.00,Holiday
9,30504529.058835478
45,1792322.3073600005
182,5940057.91392
321,157087905.11334006
345,1631107.214649897
506,126117377.70000932
531,0.0
756,66266.90267790991
905,12814548.83754094
934,9957600.0
971,0.0
984,0.0
1005,121256302.36097834
1030,155456797.89869017
1043,0.0
1085,0.000014538461538461542
2,1, 1, 1, 0, 6, 0.00,60.00,Holiday
9,27941619.29132729
45,1792322.3073600005
182,5940057.91392
321,115538711.3010573
345,72000.0
506,96331796.00836681
531,0.0
756,115967.07968634236
905,10251639.070032752
934,9957600.0
971,0.0
984,0.0
1005,90064034.81482467
1030,115466711.3010573
1043,0.0
1085,0.000014538461538461542
2,1, 1, 1, 0, 7, 0.00,60.00,Holiday
9,30504529.058835478
45,1792322.3073600005
182,5940057.91392
321,155787930.048039
345,1631109.5816101225
506,123072496.34273705
531,0.0
756,66266.90267790991
905,12814548.83754094
934,9957600.0
971,0.0
984,0.0
1005,120242319.96381453
1030,154156820.46642889
1043,0.0
1085,0.000014538461538461542
2,1, 1, 1, 0, 8, 0.00,60.00,Holiday
9,21303219.29132729
45,1792322.3073600005
182,5940057.91392
321,116413113.40445888
345,1631002.3833230865
506,95620814.32129759
531,0.0
756,66266.90267790991
905,10251639.070032752
934,3319200.0
971,0.0
984,0.0
1005,89530046.59648593
1030,114782111.0211358
1043,0.0
1085,0.000014538461538461542
2,1, 1, 1, 0, 9, 0.00,60.00,Holiday
9,20546929.05883548
45,1792322.3073600005
182,5940057.91392
321,135828398.58875174
345,72000.0
506,107418434.41077659
531,0.0
756,66266.90267790991
905,12814548.83754094
934,0.0
971,0.0
984,0.0
1005,105889990.89922634
1030,135756398.58875174
1043,0.0
1085,0.000014538461538461542
2,1, 1, 1, 0,10, 0.00,60.00,Holiday
9,17984019.291327295
45,1792322.3073600005
182,5940057.91392
321,87802177.99527107
345,1631118.2812054624
506,72288771.79820377
531,0.0
756,66266.90267790991
905,10251639.070032752
934,0.0
971,0.0
984,0.0
1005,67213426.57697118
1030,86171059.71406561
1043,0.0
1085,0.000014538461538461542
2,1, 1, 1, 0,11, 0.00,60.00,Holiday
9,20546929.05883548
45,1792322.3073600005
182,5940057.91392
321,99054219.87973479
345,1631101.9682777832
506,83193639.68498922
531,0.0
756,66266.90267790991
905,12814548.83754094
934,0.0
971,0.0
984,0.0
1005,75990031.97093648
1030,97423117.911457
1043,0.0
1085,0.000014538461538461542
2,1, 1, 1, 0,12, 0.00,60.00,Holiday
9,17984019.291327295
45,1792322.3073600005
182,5940057.91392
321,59588889.8319843
345,72000.0
506,52934659.50890146
531,0.0
756,99400.35401686483
905,10251639.070032752
934,0.0
971,0.0
984,0.0
1005,46423174.06894776
1030,59516889.8319843
1043,0.0
1085,0.000014538461538461542
2,1, 1, 1, 0,13, 0.00,60.00,Holiday
9,20546929.05883548
45,1792322.3073600005
182,5940057.91392
321,74130353.10994222
345,1631069.8270873347
506,62537668.363520998
531,0.0
756,99400.35401686483
905,12814548.83754094
934,0.0
971,0.0
984,0.0
1005,56549440.960626799
1030,72499283.28285487
1043,0.0
1085,0.000014538461538461542
2,1, 1, 1, 0,14, 0.00,60.00,Holiday
9,17788272.409840093
45,1792322.3073600005
182,5940057.91392
321,52166273.86014457
345,1631130.4630662769
506,45916586.30594223
531,0.0
756,149100.53102529728
905,10055892.188545552
934,0.0
971,0.0
984,0.0
1005,39417411.849721077
1030,50535143.3970783
1043,0.0
1085,0.000014538461538461542
2,1, 1, 1, 0,15, 0.00,60.00,Holiday
9,19763941.532886678
45,1792322.3073600005
182,5940057.91392
321,66967196.39283751
345,72000.0
506,58656769.21659468
531,0.0
756,99400.35401686482
905,12031561.311592136
934,0.0
971,0.0
984,0.0
1005,52178253.18641326
1030,66895196.39283751
1043,0.0
1085,0.000014538461538461542
2,1, 1, 1, 0,16, 0.00,60.00,Holiday
9,16732705.732652057
45,1792322.3073600005
182,5940057.91392
321,51673688.07127106
345,1631008.195195289
506,44694552.57052474
531,0.0
756,66266.90267790991
905,8998859.028514663
934,0.0
971,11159.251790108654
984,1466.482842853122
1005,39033290.303339097
1030,50042679.87607577
1043,0.0
1085,0.000014538461538461542
2,1, 1, 1, 0,17, 0.00,60.00,Holiday
9,26017540.449079664
45,1792322.3073600005
182,5940057.91392
321,71693453.73500806
345,1631092.4941537907
506,59649706.29005364
531,0.0
756,66266.90267790991
905,11640067.548617732
934,6638400.0
971,50844.221141215865
984,6692.6791673916209
1005,54648641.76786634
1030,70062361.24085428
1043,0.0
1085,0.000014538461538461542
2,1, 1, 1, 0,18, 0.00,60.00,Holiday
9,27941619.29132729
45,1792322.3073600005
182,5940057.91392
321,55887950.16445303
345,72000.0
506,49974595.81864042
531,0.0
756,66266.90267790991
905,10251639.070032752
934,9957600.0
971,0.0
984,0.0
1005,43536441.12827336
1030,55815950.16445303
1043,0.0
1085,0.000014538461538461542
2,1, 1, 1, 0,19, 0.00,60.00,Holiday
9,30426230.3062406
45,1792322.3073600005
182,5940057.91392
321,59646287.15464343
345,1631117.6323129968
506,53271861.69689138
531,0.0
756,66266.90267790991
905,12736250.08494606
934,9957600.0
971,0.0
984,0.0
1005,45251832.22741774
1030,58015169.52233043
1043,0.0
1085,0.000014538461538461542
2,1, 1, 1, 0,20, 0.00,60.00,Holiday
9,27941619.291327295
45,1792322.3073600005
182,5940057.91392
321,53317847.737597379
345,1631090.4846639897
506,47885869.046692099
531,0.0
756,66266.90267790991
905,10251639.070032752
934,9957600.0
971,0.0
984,0.0
1005,40315670.65728804
1030,51686757.25293339
1043,0.0
1085,0.000014538461538461542
2,1, 1, 1, 0,21, 0.00,60.00,Holiday
9,30504529.05883548
45,1792322.3073600005
182,5940057.91392
321,59699676.80687218
345,72000.0
506,54637600.20984232
531,0.0
756,66266.90267790991
905,12814548.83754094
934,9957600.0
971,0.0
984,0.0
1005,46509587.90936031
1030,59627676.80687218
1043,0.0
1085,0.000014538461538461542
2,1, 1, 1, 0,22, 0.00,60.00,Holiday
9,27941619.291327295
45,1792322.3073600005
182,5940057.91392
321,54656667.72763575
345,1631141.9673766343
506,48976700.618740897
531,0.0
756,115967.07968634236
905,10251639.070032752
934,9957600.0
971,0.0
984,0.0
1005,41359910.09300211
1030,53025525.760259117
1043,0.0
1085,0.000014538461538461542
2,1, 1, 1, 0,23, 0.00,60.00,Holiday
9,30504529.05883548
45,1792322.3073600005
182,5940057.91392
321,63009258.097682427
345,1631013.1634158735
506,55999203.78741247
531,0.0
756,66266.90267790991
905,12814548.837540942
934,9957600.0
971,0.0
984,0.0
1005,47875031.048727918
1030,61378244.934266548
1043,0.0
1085,0.000014538461538461542
2,1, 1, 1, 0,24, 0.00,60.00,Holiday
9,27941619.291327295
45,1792322.3073600005
182,5940057.91392
321,55879153.693669188
345,72000.0
506,51148503.84179839
531,0.0
756,66266.90267790991
905,10251639.070032753
934,9957600.0
971,0.0
984,0.0
1005,43529579.88106197
1030,55807153.693669188
1043,0.0
1085,0.000014538461538461542
2,2, 1, 2, 0, 1, 0.00,60.00,Monday
9,32484548.363475477
45,1792322.3073600005
182,7920077.218560001
321,69707547.82924512
345,1631115.1923783886
506,61038952.80751211
531,0.0
756,83009.40229773079
905,12814548.837540942
934,9957600.0
971,0.0
984,0.0
1005,53099617.45675603
1030,68076432.63686674
1043,0.0
1085,0.000014538461538461542
2,2, 1, 2, 0, 2, 0.00,60.00,Monday
9,29921638.59596729
45,1792322.3073600005
182,7920077.218560001
321,64162388.35571471
345,1631118.8753964336
506,56133577.48761587
531,0.0
756,83009.40229773079
905,10251639.070032753
934,9957600.0
971,0.0
984,0.0
1005,48774390.19464825
1030,62531269.48031827
1043,0.0
1085,0.000014538461538461542
2,2, 1, 2, 0, 3, 0.00,60.00,Monday
9,32484548.363475477
45,1792322.3073600005
182,7920077.218560001
321,71028094.56481676
345,72000.0
506,62961575.185311648
531,0.0
756,83009.40229773079
905,12814548.837540942
934,9957600.0
971,0.0
984,0.0
1005,55345753.76055707
1030,70956094.56481676
1043,0.0
1085,0.000014538461538461542
2,2, 1, 2, 0, 4, 0.00,60.00,Monday
9,29921638.59596729
45,1792322.3073600005
182,7920077.218560001
321,64936937.56185543
345,1631085.2456733455
506,56699802.93707531
531,0.0
756,83009.4022977308
905,10251639.070032753
934,9957600.0
971,0.0
984,0.0
1005,49378564.80662204
1030,63305852.316182088
1043,0.0
1085,0.000014538461538461542
2,2, 1, 2, 0, 5, 0.00,60.00,Monday
9,32484548.363475477
45,1792322.3073600005
182,7920077.218560001
321,68517413.48745495
345,1631121.957024701
506,59614366.521668639
531,0.0
756,83009.40229773079
905,12814548.837540942
934,9957600.0
971,0.0
984,0.0
1005,52171307.39373559
1030,66886291.53043024
1043,0.0
1085,0.000014538461538461542
2,2, 1, 2, 0, 6, 0.00,60.00,Monday
9,31713960.903327295
45,3584644.614720001
182,7920077.218560001
321,55941500.16933381
345,72000.0
506,51131387.49172258
531,0.0
756,132815.04367636925
905,10251639.070032753
934,9957600.0
971,0.0
984,0.0
1005,43578210.132080379
1030,55869500.16933381
1043,0.0
1085,0.000014538461538461542
2,2, 1, 2, 0, 7, 0.00,60.00,Monday
9,36839780.43834367
45,3584644.614720001
182,7920077.218560001
321,165504531.2192303
345,1631022.431327838
506,138823860.23779727
531,0.0
756,116213.16321682312
905,15377458.60504913
934,9957600.0
971,0.0
984,0.0
1005,127821336.85456394
1030,163873508.78790248
1043,0.0
1085,0.000014538461538461542
2,2, 1, 2, 0, 8, 0.00,60.00,Monday
9,37370669.66778367
45,10753933.844160002
182,7920077.218560001
321,128934988.30710604
345,1631113.2271071035
506,89279885.465567
531,0.0
756,315435.72873137696
905,15377458.605049128
934,3319200.0
971,0.0
984,0.0
1005,99297022.56239917
1030,127303875.07999893
1043,0.0
1085,0.000014538461538461542
2,2, 1, 2, 0, 9, 0.00,60.00,Monday
9,65459433.87930367
45,32261801.53248001
182,17820173.74176
321,83200334.8578099
345,1631190.5587861562
506,54014668.984179969
531,0.0
756,581065.8160841153
905,15377458.605049128
934,0.0
971,0.0
984,0.0
1005,63623932.553238529
1030,81569144.29902375
1043,0.0
1085,0.000014538461538461542
2,2, 1, 2, 0,10, 0.00,60.00,Monday
9,65459433.87930367
45,32261801.53248001
182,17820173.74176
321,63906557.92603528
345,1631303.857924733
506,39668405.6117102
531,0.0
756,630871.4574627539
905,15377458.605049128
934,0.0
971,0.0
984,0.0
1005,48574698.17312623
1030,62275254.06811054
1043,0.0
1085,0.000014538461538461542
2,2, 1, 2, 0,11, 0.00,60.00,Monday
9,65459433.87930367
45,32261801.53248001
182,17820173.74176
321,50059017.09286551
345,1631225.5524167109
506,30062363.859652614
531,147405.10654441169
756,647473.3379223
905,15377458.605049128
934,0.0
971,0.0
984,0.0
1005,37773677.40155006
1030,48427791.5404488
1043,0.0
1085,0.000014538461538461542
2,2, 1, 2, 0,12, 0.00,60.00,Monday
9,65459433.87930367
45,32261801.53248001
182,17820173.74176
321,39362483.62450796
345,1631457.4728772157
506,23411299.01079234
531,1303641.2331682433
756,780288.3815986691
905,15377458.605049128
934,0.0
971,0.0
984,0.0
1005,29430200.398271987
1030,37731026.15163075
1043,0.0
1085,0.000014538461538461542
2,2, 1, 2, 0,13, 0.00,60.00,Monday
9,63479414.574663687
45,32261801.53248001
182,15840154.437120002
321,38343277.71592851
345,3190797.133939335
506,21361358.90419851
531,1270188.8692931825
756,946307.1861941306
905,15377458.605049128
934,0.0
971,0.0
984,0.0
1005,27418934.853951556
1030,35152480.58198918
1043,0.0
1085,0.000014538461538461542
2,2, 1, 2, 0,14, 0.00,60.00,Monday
9,65459433.87930367
45,32261801.53248001
182,17820173.74176
321,29303585.464017434
345,1631316.6494396423
506,16314391.469265927
531,3245293.755525598
756,896501.5448154926
905,15377458.605049128
934,0.0
971,0.0
984,0.0
1005,21584369.67537067
1030,27672268.814577789
1043,0.0
1085,0.000014538461538461542
2,2, 1, 2, 0,15, 0.00,60.00,Monday
9,65459433.87930367
45,32261801.53248001
182,17820173.74176
321,29375138.737481845
345,1631165.2323961417
506,15792335.829520565
531,3924483.512983065
756,564463.9356245693
905,15377458.605049128
934,0.0
971,0.0
984,0.0
1005,21640299.333966849
1030,27743973.505085704
1043,0.0
1085,0.000014538461538461542
2,2, 1, 2, 0,16, 0.00,60.00,Monday
9,65459433.87930367
45,32261801.53248001
182,17820173.74176
321,27511455.507335739
345,1631204.9141434082
506,15339014.53134155
531,4384518.906733609
756,547862.0551650231
905,15377458.605049128
934,0.0
971,0.0
984,0.0
1005,20186595.462690016
1030,25880250.593192329
1043,0.0
1085,0.000014538461538461542
2,2, 1, 2, 0,17, 0.00,60.00,Monday
9,72097833.87930368
45,32261801.53248001
182,17820173.74176
321,27123544.072686685
345,1631385.8123509715
506,15914521.476980638
531,4696471.10744324
756,730482.7402200309
905,15377458.605049128
934,6638400.0
971,0.0
984,0.0
1005,19883883.44306186
1030,25492158.260335715
1043,0.0
1085,0.000014538461538461542
2,2, 1, 2, 0,18, 0.00,60.00,Monday
9,53158378.20186367
45,17923223.073600007
182,9900096.523200002
321,47664581.47775445
345,1631178.8314826622
506,27538335.159886335
531,1114331.3406148486
756,431648.8919482
905,15377458.605049128
934,9957600.0
971,0.0
984,0.0
1005,35906054.064092
1030,46033402.64627179
1043,0.0
1085,0.000014538461538461542
2,2, 1, 2, 0,19, 0.00,60.00,Monday
9,44009069.66778366
45,10753933.844160002
182,7920077.218560001
321,57752574.62781855
345,1631217.5972122409
506,34526314.09882942
531,0.0
756,348639.4896504693
905,15377458.605049128
934,9957600.0
971,0.0
984,0.0
1005,43774658.48387293
1030,56121357.03060631
1043,0.0
1085,0.000014538461538461542
2,2, 1, 2, 0,20, 0.00,60.00,Monday
9,44009069.66778366
45,10753933.844160002
182,7920077.218560001
321,58918434.69559838
345,1631148.120806921
506,36367508.33104001
531,0.0
756,249028.2068931923
905,15377458.605049128
934,9957600.0
971,0.0
984,0.0
1005,44684083.52833733
1030,57287286.574791457
1043,0.0
1085,0.000014538461538461542
2,2, 1, 2, 0,21, 0.00,60.00,Monday
9,40424425.053063679
45,7169289.229440002
182,7920077.218560001
321,60617555.37463878
345,1631107.8887397072
506,38345812.771462317
531,0.0
756,282231.96781228468
905,15377458.605049128
934,9957600.0
971,0.0
984,0.0
1005,46009429.03900128
1030,58986447.485899079
1043,0.0
1085,0.000014538461538461542
2,2, 1, 2, 0,22, 0.00,60.00,Monday
9,40424425.053063679
45,7169289.229440002
182,7920077.218560001
321,58535512.62090212
345,72000.0
506,38569286.18464592
531,0.0
756,132815.04367636925
905,15377458.605049128
934,9957600.0
971,0.0
984,0.0
1005,45601539.84430366
1030,58463512.62090212
1043,0.0
1085,0.000014538461538461542
2,2, 1, 2, 0,23, 0.00,60.00,Monday
9,26890861.84462901
45,3584644.614720001
182,7920077.218560001
321,6902456.478072021
345,1631111.8052913277
506,8573406.010582138
531,0.0
756,83009.4022977308
905,5428540.011334464
934,9957600.0
971,0.0
984,0.0
1005,4111648.8447689407
1030,5271344.672780693
1043,0.0
1085,0.000014538461538461542
2,2, 1, 2, 0,24, 0.00,60.00,Monday
9,30527079.548603469
45,1792322.3073600005
182,7920077.218560001
321,31160021.832009797
345,1631098.6510495539
506,30590627.12243411
531,0.0
756,83009.40229773079
905,10857080.022668928
934,9957600.0
971,0.0
984,0.0
1005,23032560.08114899
1030,29528923.18096024
1043,0.0
1085,0.000014538461538461542
2,3, 1, 3, 0, 1, 0.00,60.00,Tuesday
9,28355663.544069686
45,1792322.3073600005
182,7920077.218560001
321,29145257.400724584
345,72000.0
506,29123589.445758977
531,0.0
756,83181.84411438593
905,8685664.018135142
934,9957600.0
971,0.0
984,0.0
1005,22677140.77256517
1030,29073257.400724584
1043,0.0
1085,0.000014538461538461542
2,3, 1, 3, 0, 2, 0.00,60.00,Tuesday
9,30527079.548603469
45,1792322.3073600005
182,7920077.218560001
321,46370537.30196725
345,1631080.2245622555
506,41056479.25426145
531,0.0
756,83181.84411438594
905,10857080.022668928
934,9957600.0
971,0.0
984,0.0
1005,34896776.5203759
1030,44739457.077405
1043,0.0
1085,0.000014538461538461542
2,3, 1, 3, 0, 3, 0.00,60.00,Tuesday
9,28355663.544069686
45,1792322.3073600005
182,7920077.218560001
321,37002900.88849674
345,1631072.5958152214
506,33639424.33555636
531,0.0
756,83181.84411438593
905,8685664.018135142
934,9957600.0
971,0.0
984,0.0
1005,27590026.068291587
1030,35371828.292681518
1043,0.0
1085,0.000014538461538461542
2,3, 1, 3, 0, 4, 0.00,60.00,Tuesday
9,30527079.548603469
45,1792322.3073600005
182,7920077.218560001
321,50869882.26986709
345,72000.0
506,45233686.14195463
531,0.0
756,83181.84411438594
905,10857080.022668928
934,9957600.0
971,0.0
984,0.0
1005,39622348.17049632
1030,50797882.26986709
1043,0.0
1085,0.000014538461538461542
2,3, 1, 3, 0, 5, 0.00,60.00,Tuesday
9,28355663.544069686
45,1792322.3073600005
182,7920077.218560001
321,44407926.43699134
345,1631127.4578837464
506,39021745.69406366
531,0.0
756,83181.84411438593
905,8685664.018135142
934,9957600.0
971,0.0
984,0.0
1005,33365903.203703926
1030,42776798.979107599
1043,0.0
1085,0.000014538461538461542
2,3, 1, 3, 0, 6, 0.00,60.00,Tuesday
9,32319401.85596347
45,3584644.614720001
182,7920077.218560001
321,68345350.98982027
345,1631119.4479060628
506,57531344.3534054
531,0.0
756,133090.95058301747
905,10857080.022668928
934,9957600.0
971,0.0
984,0.0
1005,52037100.60269309
1030,66714231.54191422
1043,0.0
1085,0.000014538461538461542
2,3, 1, 3, 0, 7, 0.00,60.00,Tuesday
9,36839780.43834367
45,3584644.614720001
182,7920077.218560001
321,116322305.91132051
345,72000.0
506,103224539.75867015
531,0.0
756,116454.58176014028
905,15377458.60504913
934,9957600.0
971,0.0
984,0.0
1005,90675238.61083001
1030,116250305.91132051
1043,0.0
1085,0.000014538461538461542
2,3, 1, 3, 0, 8, 0.00,60.00,Tuesday
9,37370669.66778367
45,10753933.844160002
182,7920077.218560001
321,111421692.4852986
345,1631110.5137533455
506,72450463.34854487
531,0.0
756,316091.00763466648
905,15377458.605049128
934,3319200.0
971,0.0
984,0.0
1005,85636653.93780531
1030,109790581.97154527
1043,0.0
1085,0.000014538461538461542
2,3, 1, 3, 0, 9, 0.00,60.00,Tuesday
9,65459433.87930367
45,32261801.53248001
182,17820173.74176
321,75313715.24982074
345,1631272.7651925062
506,43580631.438156
531,46383.61828405249
756,582272.9088007013
905,15377458.605049128
934,0.0
971,0.0
984,0.0
1005,57472305.13801001
1030,73682442.48462823
1043,0.0
1085,0.000014538461538461542
2,3, 1, 3, 0,10, 0.00,60.00,Tuesday
9,65459433.87930367
45,32261801.53248001
182,17820173.74176
321,63523391.217045348
345,1631372.2500571435
506,34876525.10011526
531,1074162.5170297793
756,632182.0152693329
905,15377458.605049128
934,0.0
971,0.0
984,0.0
1005,48275774.794250797
1030,61892018.9669882
1043,0.0
1085,0.000014538461538461542
2,3, 1, 3, 0,11, 0.00,60.00,Tuesday
9,65459433.87930367
45,32261801.53248001
182,17820173.74176
321,56078042.46220706
345,3190502.7875793615
506,29184503.038215974
531,2063966.0740757399
756,648818.3840922101
905,15377458.605049128
934,0.0
971,0.0
984,0.0
1005,41252280.9462096
1030,52887539.67462769
1043,0.0
1085,0.000014538461538461542
2,3, 1, 3, 0,12, 0.00,60.00,Tuesday
9,65459433.87930367
45,32261801.53248001
182,17820173.74176
321,46973248.949424657
345,1631276.8460617513
506,24732689.21752065
531,2846308.601995194
756,781909.3346752274
905,15377458.605049128
934,0.0
971,0.0
984,0.0
1005,35366738.240623068
1030,45341972.1033629
1043,0.0
1085,0.000014538461538461542
2,3, 1, 3, 0,13, 0.00,60.00,Tuesday
9,63479414.574663687
45,32261801.53248001
182,15840154.437120002
321,45899418.60638775
345,1631454.743754342
506,24060693.960440823
531,2377616.9772856414
756,948273.0229039991
905,15377458.605049128
934,0.0
971,0.0
984,0.0
1005,34529011.81285406
1030,44267963.86263341
1043,0.0
1085,0.000014538461538461542
2,3, 1, 3, 0,14, 0.00,60.00,Tuesday
9,65459433.87930367
45,32261801.53248001
182,17820173.74176
321,36852256.10739998
345,1631312.6597803697
506,18862961.71682343
531,3992087.0450019205
756,898363.9164353679
905,15377458.605049128
934,0.0
971,0.0
984,0.0
1005,27472335.88914329
1030,35220943.44761961
1043,0.0
1085,0.000014538461538461542
2,3, 1, 3, 0,15, 0.00,60.00,Tuesday
9,65459433.87930367
45,32261801.53248001
182,17820173.74176
321,34539693.993753779
345,1631272.091887529
506,17541627.400509728
531,4474757.952659981
756,565636.5399778242
905,15377458.605049128
934,0.0
971,0.0
984,0.0
1005,25668569.083455668
1030,32908421.90186624
1043,0.0
1085,0.000014538461538461542
2,3, 1, 3, 0,16, 0.00,60.00,Tuesday
9,65459433.87930367
45,32261801.53248001
182,17820173.74176
321,33946217.33463292
345,1631305.5977685035
506,17438617.42306913
531,4834731.741849751
756,549000.1711549469
905,15377458.605049128
934,0.0
971,0.0
984,0.0
1005,25205631.15475425
1030,32314911.736864419
1043,0.0
1085,0.000014538461538461542
2,3, 1, 3, 0,17, 0.00,60.00,Tuesday
9,72097833.87930368
45,32261801.53248001
182,17820173.74176
321,36933846.84637985
345,3190845.67553983
506,18773817.57756762
531,5059603.31491643
756,732000.2282065961
905,15377458.605049128
934,6638400.0
971,0.0
984,0.0
1005,26319540.913255216
1030,33743001.17084001
1043,0.0
1085,0.000014538461538461542
2,3, 1, 3, 0,18, 0.00,60.00,Tuesday
9,53158378.20186367
45,17923223.073600007
182,9900096.523200002
321,55104272.09501264
345,1631249.2235894979
506,30404035.201517553
531,1297435.7978045589
756,432545.58939480668
905,15377458.605049128
934,9957600.0
971,0.0
984,0.0
1005,41708957.83971005
1030,53473022.87142314
1043,0.0
1085,0.000014538461538461542
2,3, 1, 3, 0,19, 0.00,60.00,Tuesday
9,44009069.66778366
45,10753933.844160002
182,7920077.218560001
321,65351087.97024046
345,72000.0
506,38318584.115810688
531,0.0
756,349363.74528042078
905,15377458.605049128
934,9957600.0
971,0.0
984,0.0
1005,50917688.61678755
1030,65279087.97024046
1043,0.0
1085,0.000014538461538461542
2,3, 1, 3, 0,20, 0.00,60.00,Tuesday
9,44009069.66778366
45,10753933.844160002
182,7920077.218560001
321,71473163.96266677
345,1631194.6209236342
506,41873310.722676198
531,0.0
756,249545.53234315775
905,15377458.605049128
934,9957600.0
971,0.0
984,0.0
1005,54476736.08655964
1030,69841969.34174313
1043,0.0
1085,0.000014538461538461542
2,3, 1, 3, 0,21, 0.00,60.00,Tuesday
9,40424425.053063679
45,7169289.229440002
182,7920077.218560001
321,75938921.50991681
345,1631138.7690771088
506,45349685.823330778
531,0.0
756,282818.2699889121
905,15377458.605049128
934,9957600.0
971,0.0
984,0.0
1005,57960070.53785496
1030,74307782.74083969
1043,0.0
1085,0.000014538461538461542
2,3, 1, 3, 0,22, 0.00,60.00,Tuesday
9,40424425.053063679
45,7169289.229440002
182,7920077.218560001
321,78386511.64033379
345,1631100.65764515
506,47255981.9399404
531,0.0
756,133090.95058301744
905,15377458.605049128
934,9957600.0
971,0.0
984,0.0
1005,59869220.56649713
1030,76755410.98268864
1043,0.0
1085,0.000014538461538461542
2,3, 1, 3, 0,23, 0.00,60.00,Tuesday
9,30147985.851429687
45,3584644.614720001
182,7920077.218560001
321,23220407.672040259
345,72000.0
506,26038497.290732486
531,0.0
756,83181.84411438593
905,8685664.018135142
934,9957600.0
971,0.0
984,0.0
1005,18055757.9841914
1030,23148407.672040259
1043,0.0
1085,0.000014538461538461542
2,3, 1, 3, 0,24, 0.00,60.00,Tuesday
9,30527079.548603469
45,1792322.3073600005
182,7920077.218560001
321,47851960.08773519
345,1631087.3902341829
506,44119625.225953388
531,0.0
756,83181.84411438593
905,10857080.022668928
934,9957600.0
971,0.0
984,0.0
1005,36052280.704050797
1030,46220872.697501007
1043,0.0
1085,0.000014538461538461542
2,4, 1, 4, 0, 1, 0.00,60.00,Wednesday
9,28355663.544069686
45,1792322.3073600005
182,7920077.218560001
321,50978935.7440234
345,1631079.95352807
506,41621253.98606473
531,0.0
756,83350.90273034208
905,8685664.018135142
934,9957600.0
971,0.0
984,0.0
1005,38491327.516586359
1030,49347855.790495339
1043,0.0
1085,0.000014538461538461542
2,4, 1, 4, 0, 2, 0.00,60.00,Wednesday
9,30527079.548603469
45,1792322.3073600005
182,7920077.218560001
321,60230288.316142659
345,72000.0
506,54258398.748509269
531,0.0
756,83350.90273034208
905,10857080.022668928
934,9957600.0
971,0.0
984,0.0
1005,46923464.88659127
1030,60158288.316142659
1043,0.0
1085,0.000014538461538461542
2,4, 1, 4, 0, 3, 0.00,60.00,Wednesday
9,28355663.544069686
45,1792322.3073600005
182,7920077.218560001
321,59239638.87263619
345,1631119.0559844708
506,47169393.63745952
531,0.0
756,83350.90273034208
905,8685664.018135142
934,9957600.0
971,0.0
984,0.0
1005,44934645.456988338
1030,57608519.81665172
1043,0.0
1085,0.000014538461538461542
2,4, 1, 4, 0, 4, 0.00,60.00,Wednesday
9,30527079.548603469
45,1792322.3073600005
182,7920077.218560001
321,70745286.64246926
345,1631114.9152252137
506,62041335.949642959
531,0.0
756,83350.90273034208
905,10857080.022668928
934,9957600.0
971,0.0
984,0.0
1005,53909053.947250369
1030,69114171.72724405
1043,0.0
1085,0.000014538461538461542
2,4, 1, 4, 0, 5, 0.00,60.00,Wednesday
9,28355663.544069686
45,1792322.3073600005
182,7920077.218560001
321,66940360.72633074
345,72000.0
506,55981502.46212383
531,0.0
756,83350.90273034208
905,8685664.018135142
934,9957600.0
971,0.0
984,0.0
1005,52157321.36653798
1030,66868360.72633074
1043,0.0
1085,0.000014538461538461542
2,4, 1, 4, 0, 6, 0.00,60.00,Wednesday
9,32319401.855963477
45,3584644.614720001
182,7920077.218560001
321,73940599.9454216
345,1631080.6010773457
506,63441080.0472621
531,0.0
756,133361.44436854727
905,10857080.022668928
934,9957600.0
971,0.0
984,0.0
1005,56401425.08858853
1030,72309519.34434426
1043,0.0
1085,0.000014538461538461542
2,4, 1, 4, 0, 7, 0.00,60.00,Wednesday
9,36839780.43834367
45,3584644.614720001
182,7920077.218560001
321,125799744.32837469
345,1631117.3250748886
506,109390887.66319546
531,0.0
756,116691.26382247893
905,15377458.60504913
934,9957600.0
971,0.0
984,0.0
1005,96851529.06257385
1030,124168627.0032998
1043,0.0
1085,0.000014538461538461542
2,4, 1, 4, 0, 8, 0.00,60.00,Wednesday
9,37370669.66778367
45,10753933.844160002
182,7920077.218560001
321,114283282.42898965
345,1631125.9791534469
506,75248908.56741408
531,0.0
756,316733.4303752998
905,15377458.605049128
934,3319200.0
971,0.0
984,0.0
1005,87868682.03087226
1030,112652156.44983623
1043,0.0
1085,0.000014538461538461542
2,4, 1, 4, 0, 9, 0.00,60.00,Wednesday
9,65459433.87930367
45,32261801.53248001
182,17820173.74176
321,73686825.55768027
345,1631245.0718702942
506,43994570.290905538
531,0.0
756,583456.3191123944
905,15377458.605049128
934,0.0
971,0.0
984,0.0
1005,56203352.77893179
1030,72055580.48580997
1043,0.0
1085,0.000014538461538461542
2,4, 1, 4, 0,10, 0.00,60.00,Wednesday
9,65459433.87930367
45,32261801.53248001
182,17820173.74176
321,58264050.09007294
345,1631367.7188097554
506,33394129.306287566
531,792242.424423886
756,633466.8607505997
905,15377458.605049128
934,0.0
971,0.0
984,0.0
1005,44173492.24958528
1030,56632682.371263179
1043,0.0
1085,0.000014538461538461542
2,4, 1, 4, 0,11, 0.00,60.00,Wednesday
9,65459433.87930367
45,32261801.53248001
182,17820173.74176
321,48683627.91158315
345,1631294.5695999028
506,27293394.928509207
531,1923240.8556296807
756,650137.041296668
905,15377458.605049128
934,0.0
971,0.0
984,0.0
1005,36700820.00674693
1030,47052333.34198324
1043,0.0
1085,0.000014538461538461542
2,4, 1, 4, 0,12, 0.00,60.00,Wednesday
9,65459433.87930367
45,32261801.53248001
182,17820173.74176
321,40906594.88062804
345,1631321.5182184876
506,22510825.062867356
531,2802729.351145705
756,783498.4856652154
905,15377458.605049128
934,0.0
971,0.0
984,0.0
1005,30634713.22267945
1030,39275273.362409558
1043,0.0
1085,0.000014538461538461542
2,4, 1, 4, 0,13, 0.00,60.00,Wednesday
9,63479414.574663687
45,32261801.53248001
182,15840154.437120002
321,40744001.146306637
345,3190791.7101949586
506,21414548.086609037
531,2415127.796903038
756,950200.2911258995
905,15377458.605049128
934,0.0
971,0.0
984,0.0
1005,29291503.36016711
1030,37553209.43611168
1043,0.0
1085,0.000014538461538461542
2,4, 1, 4, 0,14, 0.00,60.00,Wednesday
9,65459433.87930367
45,32261801.53248001
182,17820173.74176
321,30018362.87326136
345,1631436.3112793188
506,16179230.767541038
531,4084817.7730563508
756,900189.7494876946
905,15377458.605049128
934,0.0
971,0.0
984,0.0
1005,22141802.71834599
1030,28386926.56198204
1043,0.0
1085,0.000014538461538461542
2,4, 1, 4, 0,15, 0.00,60.00,Wednesday