Program Version,EnergyPlus, Version 9.2.0-921312fa1d, YMD=2020.12.22 18:05
1,5,Environment Title[],Latitude[deg],Longitude[deg],Time Zone[],Elevation[m]
2,8,Day of Simulation[],Month[],Day of Month[],DST Indicator[1=yes 0=no],Hour[],StartMinute[],EndMinute[],DayType
3,5,Cumulative Day of Simulation[],Month[],Day of Month[],DST Indicator[1=yes 0=no],DayType  ! When Daily Meters Requested
4,2,Cumulative Days of Simulation[],Month[]  ! When Monthly Meters Requested
5,1,Cumulative Days of Simulation[] ! When Run Period Meters Requested
6,1,Calendar Year of Simulation[] ! When Annual Meters Requested
9,1,Electricity:Facility [J] !Hourly
2923,1,Heating:Electricity [J] !Hourly
2872,1,Cooling:Electricity [J] !Hourly
45,1,InteriorLights:Electricity [J] !Hourly
2834,1,ExteriorLights:Electricity [J] !Hourly
682,1,InteriorEquipment:Electricity [J] !Hourly
2688,1,Fans:Electricity [J] !Hourly
2984,1,Pumps:Electricity [J] !Hourly
1190,1,Refrigeration:Electricity [J] !Hourly
1056,1,Gas:Facility [J] !Hourly
2910,1,Heating:Gas [J] !Hourly
1092,1,InteriorEquipment:Gas [J] !Hourly
1372,1,WaterSystems:Gas [J] !Hourly
1509,1,Heating:EnergyTransfer [J] !Hourly
1534,1,Cooling:EnergyTransfer [J] !Hourly
2535,1,WaterSystems:EnergyTransfer [J] !Hourly
1165,1,Refrigeration:EnergyTransfer [J] !Hourly
2746,1,HeatingCoils:EnergyTransfer [J] !Hourly
2859,1,CoolingCoils:EnergyTransfer [J] !Hourly
End of Data Dictionary
1,RUNPERIOD 1,  41.98, -87.92,  -6.00, 201.00
2,1, 1, 1, 0, 1, 0.00,60.00,Holiday
9,254214580.94044949
45,85725350.6868
682,105272514.0
1056,640969105.3436459
1092,11540448.000000002
1165,15465825.536444359
1190,5814702.816082453
1372,72000.0
1509,281970320.9584236
1534,8866689.611825994
2535,2864062.7950066116
2688,18415475.31740599
2746,432370658.4057377
2834,37868400.0
2859,0.0
2872,0.0
2910,629356657.3436459
2923,0.0
2984,1118138.1201609937
2,1, 1, 1, 0, 2, 0.00,60.00,Holiday
9,254220339.77010534
45,85725350.6868
682,105272514.0
1056,645712676.1786609
1092,11540448.000000002
1165,14617185.548155029
1190,5669395.658249114
1372,72000.0
1509,307417497.82998189
1534,5683406.172059003
2535,2864062.8157014737
2688,18326683.410772943
2746,468310771.8316666
2834,37868400.0
2859,0.0
2872,0.0
2910,634100228.1786609
2923,0.0
2984,1357996.0142832637
2,1, 1, 1, 0, 3, 0.00,60.00,Holiday
9,257654138.7304991
45,85725350.6868
682,105272514.0
1056,867257889.7486599
1092,11540448.000000002
1165,13707175.111422342
1190,5513091.114024184
1372,10643375.362177965
1509,406535695.1041595
1534,6134358.23799452
2535,2864062.810968709
2688,21188709.680526657
2746,605596189.1304399
2834,37868400.0
2859,0.0
2872,0.0
2910,845074066.386482
2923,0.0
2984,2086073.2491482464
2,1, 1, 1, 0, 4, 0.00,60.00,Holiday
9,253823217.63876755
45,85725350.6868
682,105272514.0
1056,642678708.5901847
1092,11540448.000000002
1165,13347628.352897572
1190,5451446.002778914
1372,72000.0
1509,312683062.09380128
1534,4156459.192488151
2535,2864062.8166791738
2688,18124134.88452458
2746,469231572.84005346
2834,37868400.0
2859,0.0
2872,0.0
2910,631066260.5901848
2923,0.0
2984,1381372.0646639998
2,1, 1, 1, 0, 5, 0.00,60.00,Holiday
9,258605124.5916193
45,85725350.6868
682,105272514.0
1056,884994974.0281953
1092,11540448.000000002
1165,16497266.112173435
1190,6198018.2311972719
1372,10643824.97679431
1509,420015022.10912486
1534,5004365.504074787
2535,2864062.805462281
2688,21350748.501525348
2746,618033447.9603385
2834,37868400.0
2859,0.0
2872,0.0
2910,862810701.0514009
2923,0.0
2984,2190093.172096653
2,1, 1, 1, 0, 6, 0.00,60.00,Holiday
9,254808573.1408673
45,85725350.6868
682,105272514.0
1056,658260511.432978
1092,11540448.000000002
1165,16142244.251866546
1190,6124058.545407083
1372,72000.0
1509,324149756.3175217
1534,3815510.2331438309
2535,2864062.816630011
2688,18367193.116022618
2746,480530653.6718126
2834,37868400.0
2859,0.0
2872,0.0
2910,646648063.432978
2923,0.0
2984,1451056.7926375499
2,1, 1, 1, 0, 7, 0.00,60.00,Holiday
9,258849032.05848439
45,85725350.6868
682,105272514.0
1056,906367115.5362496
1092,11540448.000000002
1165,16731236.217300736
1190,6173967.461648568
1372,10643738.104130796
1509,435012407.6020263
1534,4151614.2733187426
2535,2864062.8164112034
2688,21512787.322524039
2746,633685310.9074227
2834,37868400.0
2859,0.0
2872,0.0
2910,884182929.4321189
2923,0.0
2984,2296012.58751175
2,1, 1, 1, 0, 8, 0.00,60.00,Holiday
9,226473108.85247929
45,85725350.6868
682,105272514.0
1056,442928423.0957883
1092,11540448.000000002
1165,15850910.494812424
1190,5923597.104752082
1372,72000.0
1509,194922813.3130365
1534,3918135.86181907
2535,2864062.8129658268
2688,16176064.794255466
2746,338442328.5741136
2834,12622800.0
2859,0.0
2872,0.0
2910,431315975.0957883
2923,0.0
2984,752782.2666717216
2,1, 1, 1, 0, 9, 0.00,60.00,Holiday
9,215190134.18222506
45,85725350.6868
682,105272514.0
1056,535969524.4497374
1092,11540448.000000002
1165,16727286.32820094
1190,6076808.117389487
1372,10650495.456208008
1509,196679710.27859438
1534,5381025.374041355
2535,4773437.856695065
2688,17288965.261703604
2746,372812275.52117058
2834,0.0
2859,0.0
2872,0.0
2910,513778580.99352946
2923,0.0
2984,826496.1163319456
2,1, 1, 1, 0,10, 0.00,60.00,Holiday
9,210842612.9990827
45,85725350.6868
682,105272514.0
1056,293893515.00031509
1092,11540448.000000002
1165,17848338.861096868
1190,6270429.312468628
1372,72000.0
1509,91039937.50483535
1534,12636811.619257816
2535,4773437.836483273
2688,13244949.063139735
2746,216456595.39116148
2834,0.0
2859,0.0
2872,0.0
2910,282281067.00031509
2923,0.0
2984,329369.9366743554
2,1, 1, 1, 0,11, 0.00,60.00,Holiday
9,214203295.73910869
45,85725350.6868
682,105272514.0
1056,329215933.6614983
1092,11540448.000000002
1165,18110431.666757257
1190,6318953.747015298
1372,10650100.886207464
1509,96147855.1786122
1534,32677346.471794897
2535,4773437.8422168749
2688,16556186.328924669
2746,227835269.99793
2834,0.0
2859,0.0
2872,0.0
2910,307025384.77529087
2923,0.0
2984,330290.9763687048
2,1, 1, 1, 0,12, 0.00,60.00,Holiday
9,213326540.24935029
45,85725350.6868
682,105272514.0
1056,212260926.68925715
1092,11540448.000000002
1165,21321741.3676611
1190,9036195.559320352
1372,10650132.84597377
1509,55570459.39587511
1534,29948492.566785516
2535,4773438.018320916
2688,13132773.204926236
2746,151083534.1376775
2834,0.0
2859,0.0
2872,0.0
2910,190070345.84328337
2923,0.0
2984,159706.79830365635
2,1, 1, 1, 0,13, 0.00,60.00,Holiday
9,212929538.90346004
45,85725350.6868
682,105272514.0
1056,225795106.3672703
1092,11540448.000000002
1165,18180442.08504194
1190,6335871.588615052
1372,72000.0
1509,57181907.45087298
1534,31032615.54722273
2535,4773438.003116304
2688,15434427.746789657
2746,168675877.41372327
2834,0.0
2859,0.0
2872,0.0
2910,214182658.3672703
2923,0.0
2984,161374.88125527954
2,1, 1, 1, 0,14, 0.00,60.00,Holiday
9,208569666.99507935
45,85725350.6868
682,105272514.0
1056,164068034.40412215
1092,11540448.000000002
1165,19070362.329575927
1190,6484812.4385156319
1372,10650449.922811753
1509,31451799.75740984
1534,18359219.14555937
2535,4773437.878994153
2688,11001431.89886971
2746,112777893.33936566
2834,0.0
2859,0.0
2872,0.0
2910,141877136.48131038
2923,0.0
2984,85557.97089403888
2,1, 1, 1, 0,15, 0.00,60.00,Holiday
9,210391373.89385674
45,85725350.6868
682,105272514.0
1056,168041791.63213004
1092,11540448.000000002
1165,19378329.50254952
1190,6536366.61497951
1372,72000.0
1509,34297433.01766025
1534,22670867.029782066
2535,2864062.814529279
2688,12760445.1027074
2746,123469907.5916031
2834,0.0
2859,0.0
2872,0.0
2910,156429343.63213004
2923,0.0
2984,96697.48936984773
2,1, 1, 1, 0,16, 0.00,60.00,Holiday
9,208072550.5714069
45,85725350.6868
682,105272514.0
1056,151079997.33704836
1092,11540448.000000002
1165,19127373.102608526
1190,6494590.973506843
1372,10643438.54265387
1509,26007429.842195788
1534,16665836.04454834
2535,2864062.7968156936
2688,10505759.513429841
2746,100888905.53165543
2834,0.0
2859,0.0
2872,0.0
2910,128896110.7943945
2923,0.0
2984,74335.39767019019
2,1, 1, 1, 0,17, 0.00,60.00,Holiday
9,235258437.49311359
45,85725350.6868
682,105272514.0
1056,181325403.1219871
1092,11540448.000000002
1165,17035784.901322165
1190,6146058.861454768
1372,72000.0
1509,36496598.75474702
1534,16288404.666915253
2535,2864062.81581612
2688,12760445.1027074
2746,130418955.83994937
2834,25245600.0
2859,0.0
2872,0.0
2910,169712955.1219871
2923,0.0
2984,108468.84215142946
2,1, 1, 1, 0,18, 0.00,60.00,Holiday
9,246041186.1972361
45,85725350.6868
682,105272514.0
1056,175475582.34279118
1092,11540448.000000002
1165,17045711.528950234
1190,6147752.786846817
1372,10643638.694987348
1509,31551593.519472269
1534,9657055.8511722
2535,2864062.782039719
2688,10926418.98173047
2746,116867164.18824278
2834,37868400.0
2859,0.0
2872,0.0
2910,153291495.6478038
2923,0.0
2984,100749.7418588155
2,1, 1, 1, 0,19, 0.00,60.00,Holiday
9,251182231.7411866
45,85725350.6868
682,105272514.0
1056,254093593.052202
1092,11540448.000000002
1165,17041813.489402243
1190,6147087.607450858
1372,72000.0
1509,52664463.89671123
1534,11631755.913375292
2535,2864062.816216859
2688,15995307.037857164
2746,180657967.17064823
2834,37868400.0
2859,0.0
2872,0.0
2910,242481145.052202
2923,0.0
2984,173572.40907856558
2,1, 1, 1, 0,20, 0.00,60.00,Holiday
9,248747690.24450935
45,85725350.6868
682,105272514.0
1056,215131424.08053369
1092,11540448.000000002
1165,20331050.677184587
1190,6917721.497363935
1372,10643799.340448818
1509,42186578.25696044
1534,8270756.762317805
2535,2864062.814818828
2688,12824289.594839106
2746,144080771.2274127
2834,37868400.0
2859,0.0
2872,0.0
2910,192947176.74008487
2923,0.0
2984,139414.46550623736
2,1, 1, 1, 0,21, 0.00,60.00,Holiday
9,251777135.95339323
45,85725350.6868
682,105272514.0
1056,262077470.9360572
1092,11540448.000000002
1165,20123878.428961167
1190,6868967.0534870619
1372,72000.0
1509,58554674.63730052
1534,9960391.723240823
2535,2864062.8055216127
2688,15855087.215090286
2746,184313300.11847533
2834,37868400.0
2859,0.0
2872,0.0
2910,250465022.9360572
2923,0.0
2984,186816.9980158594
2,1, 1, 1, 0,22, 0.00,60.00,Holiday
9,248967596.41603739
45,85725350.6868
682,105272514.0
1056,379997669.3314946
1092,11540448.000000002
1165,18238804.867820637
1190,6438260.774956359
1372,10643758.45682471
1509,130349149.51224527
1534,8838270.116239232
2535,2864062.814091917
2688,13244949.063139735
2746,233434762.49052505
2834,37868400.0
2859,0.0
2872,0.0
2910,357813462.8746699
2923,0.0
2984,418121.89114128387
2,1, 1, 1, 0,23, 0.00,60.00,Holiday
9,251935772.21289469
45,85725350.6868
682,105272514.0
1056,469984097.33327236
1092,11540448.000000002
1165,15688531.259187673
1190,5852393.671594381
1372,72000.0
1509,185744277.30306814
1534,10907515.495759096
2535,2864062.7899726175
2688,16556186.328924669
2746,314970022.3615254
2834,37868400.0
2859,0.0
2872,0.0
2910,458371649.33327236
2923,0.0
2984,660927.5255756495
2,1, 1, 1, 0,24, 0.00,60.00,Holiday
9,251114113.6005043
45,85725350.6868
682,105272514.0
1056,349479896.2720613
1092,11540448.000000002
1165,18683737.68458513
1190,8510956.044291895
1372,72000.0
1509,147231553.82880027
1534,8564436.95655521
2535,2864062.815305516
2688,13244949.063139735
2746,251551005.1498555
2834,37868400.0
2859,0.0
2872,0.0
2910,337867448.2720613
2923,0.0
2984,491943.8062726766
2,2, 1, 2, 0, 1, 0.00,60.00,Monday
9,254328973.7637837
45,85725350.6868
682,105272514.0
1056,540571997.9466606
1092,11540448.000000002
1165,15554358.143267677
1190,5829609.763125082
1372,10650437.507844793
1509,226231007.67141543
1534,10558787.132786349
2535,4782611.352640476
2688,18754523.127261469
2746,360582377.47106209
2834,37868400.0
2859,0.0
2872,0.0
2910,518381112.4388158
2923,0.0
2984,878576.1865971193
2,2, 1, 2, 0, 2, 0.00,60.00,Monday
9,250505999.35623429
45,85725350.6868
682,105272514.0
1056,406827428.6331313
1092,11540448.000000002
1165,15524543.03664891
1190,5824613.21151305
1372,10649707.81912809
1509,179354310.00579573
1534,7907271.1895189429
2535,4782611.618977861
2688,15150174.28836496
2746,288430849.8594973
2834,37868400.0
2859,0.0
2872,0.0
2910,384637272.8140032
2923,0.0
2984,664947.1695562303
2,2, 1, 2, 0, 3, 0.00,60.00,Monday
9,254467670.5704426
45,85725350.6868
682,105272514.0
1056,547269027.5343179
1092,11540448.000000002
1165,15498400.242424565
1190,5820159.593059359
1372,72000.0
1509,241520622.86384288
1534,9588711.440680147
2535,4782611.75000715
2688,18754523.127261469
2746,377404725.3091154
2834,37868400.0
2859,0.0
2872,0.0
2910,535656579.53431788
2923,0.0
2984,1026723.1633217314
2,2, 1, 2, 0, 4, 0.00,60.00,Monday
9,250813678.9351008
45,85725350.6868
682,105272514.0
1056,407851000.931299
1092,11540448.000000002
1165,15485557.020930646
1190,5818020.5495225139
1372,10649754.53930137
1509,183395608.04213105
1534,7069951.31756448
2535,4782611.686938683
2688,15443285.861476534
2746,291863727.0052154
2834,37868400.0
2859,0.0
2872,0.0
2910,385660798.3919976
2923,0.0
2984,686107.837301704
2,2, 1, 2, 0, 5, 0.00,60.00,Monday
9,255010555.5644279
45,85725350.6868
682,105272514.0
1056,527441995.2355218
1092,11540448.000000002
1165,18781437.61221319
1190,6589763.929753324
1372,10649552.443088806
1509,229533545.68991787
1534,8894863.184964065
2535,4782611.632141279
2688,18607967.34070568
2746,360042824.0346381
2834,37868400.0
2859,0.0
2872,0.0
2910,505251994.792433
2923,0.0
2984,946559.6071688853
2,2, 1, 2, 0, 6, 0.00,60.00,Monday
9,251407292.25647504
45,85725350.6868
682,105272514.0
1056,358550927.9685862
1092,11540448.000000002
1165,18593054.288022799
1190,6544195.251453285
1372,72000.0
1509,163279309.01313374
1534,6849548.618937838
2535,4782611.647221939
2688,15443285.861476534
2746,264538434.95462079
2834,37868400.0
2859,0.0
2872,0.0
2910,346938479.9685862
2923,0.0
2984,553546.4567451519
2,2, 1, 2, 0, 7, 0.00,60.00,Monday
9,274433471.28302469
45,85725350.6868
682,107346114.0
1056,2306361125.143859
1092,11540448.000000002
1165,17694086.331242119
1190,6336930.824732359
1372,10650458.01165277
1509,855751987.169629
1534,24605172.453343825
2535,4782611.685252354
2688,26694679.506363565
2746,1589353544.1696923
2834,37868400.0
2859,142412.7006756721
2872,17017.214535760435
2910,2284170219.1322066
2923,0.0
2984,10444979.050592997
2,2, 1, 2, 0, 8, 0.00,60.00,Monday
9,593016485.0129608
45,435154064.4
682,107346114.0
1056,1706800318.5678945
1092,11540448.000000002
1165,17879106.254188405
1190,6931920.907232735
1372,10666565.582899785
1509,515064642.2760542
1534,32778186.13373843
2535,9565216.3352851
2688,26694679.506363565
2746,1266055141.4896789
2834,12622800.0
2859,41007.43861956515
2872,4656.073733194962
2910,1684593304.984995
2923,0.0
2984,4262250.125631139
2,2, 1, 2, 0, 9, 0.00,60.00,Monday
9,740979751.4932309
45,435154064.4
682,270330255.0
1056,1243805923.9707943
1092,86553360.0
1165,18782893.991805834
1190,7087081.777642719
1372,42768450.37467571
1509,103501277.77826114
1534,51862667.11239681
2535,32521686.326276266
2688,26694679.506363565
2746,829820261.5008307
2834,0.0
2859,168228.1818766061
2872,20120.906137727376
2910,1114484113.5961185
2923,0.0
2984,1693549.9030867189
2,2, 1, 2, 0,10, 0.00,60.00,Monday
9,740774237.2885296
45,435154064.4
682,270330255.0
1056,1129303861.7142063
1092,86553360.0
1165,19510827.607369394
1190,7222737.695465496
1372,75404284.29618308
1509,61031498.34437357
1534,108066015.79210691
2535,57391339.19163312
2688,26694679.506363565
2746,711882852.9301491
2834,0.0
2859,74814.48639692288
2872,9270.44581583203
2910,967346217.4180229
2923,0.0
2984,1363230.2408845889
2,2, 1, 2, 0,11, 0.00,60.00,Monday
9,755012260.0248515
45,435154064.4
682,284728041.0
1056,1036322042.7563627
1092,115404480.0
1165,19735623.11251718
1190,7294489.849395976
1372,86255454.02448261
1509,34724535.281115557
1534,145054165.23806603
2535,60260901.881447929
2688,26694679.506363565
2746,617953628.5313327
2834,0.0
2859,89504.71707690155
2872,11484.738578829187
2910,834662108.7318802
2923,0.0
2984,1129500.5305130615
2,2, 1, 2, 0,12, 0.00,60.00,Monday
9,757643261.0056056
45,435154064.4
682,284728041.0
1056,919128685.5502639
1092,115404480.0
1165,23151190.14774512
1190,10043102.148964242
1372,86495819.36795014
1509,9554008.15048758
1534,197450790.3063676
2535,68869558.95619482
2688,26694679.506363565
2746,528602501.9130608
2834,0.0
2859,0.0
2872,0.0
2910,717228386.1823137
2923,0.0
2984,1023373.9502776399
2,2, 1, 2, 0,13, 0.00,60.00,Monday
9,754916187.6946969
45,435154064.4
682,284728041.0
1056,906126004.9568327
1092,115404480.0
1165,19908965.523751208
1190,7343792.727729648
1372,97525497.61506136
1509,7504646.613875879
1534,219817878.5763301
2535,75565259.74660667
2688,26694679.506363565
2746,510272030.0209165
2834,0.0
2859,0.0
2872,0.0
2910,693196027.3417713
2923,0.0
2984,995610.0606035082
2,2, 1, 2, 0,14, 0.00,60.00,Monday
9,740689248.6756865
45,435154064.4
682,270330255.0
1056,951846471.3506128
1092,57702240.0
1165,20406260.97693852
1190,7389183.541490595
1372,97643358.29742882
1509,6901358.567621173
1534,188139899.95285789
2535,79391054.5841669
2688,26694679.506363565
2746,583568224.8433735
2834,0.0
2859,0.0
2872,0.0
2910,796500873.0531838
2923,0.0
2984,1121066.2278321759
2,2, 1, 2, 0,15, 0.00,60.00,Monday
9,740822930.7145529
45,435154064.4
682,270330255.0
1056,979340074.7775595
1092,57702240.0
1165,20442533.050893856
1190,7368801.681016929
1372,75421996.69154728
1509,7335666.469329327
1534,192673170.43317364
2535,58347856.904497567
2688,26694679.506363565
2746,623040182.2573317
2834,0.0
2859,0.0
2872,0.0
2910,846215838.0860124
2923,0.0
2984,1275130.127172256
2,2, 1, 2, 0,16, 0.00,60.00,Monday
9,733469515.5796763
45,435154064.4
682,263131362.0
1056,918353442.9733021
1092,11540448.000000002
1165,19922048.05293509
1190,7287926.187602627
1372,86303612.63614504
1509,15538526.527042587
1534,198127823.5240809
2535,62173950.247147757
2688,26694679.506363565
2746,611118999.7073248
2834,0.0
2859,0.0
2872,0.0
2910,820509382.337157
2923,0.0
2984,1201483.485709979
2,2, 1, 2, 0,17, 0.00,60.00,Monday
9,758277411.5233513
45,435154064.4
682,263131362.0
1056,827851814.6451578
1092,11540448.000000002
1165,17394869.892694985
1190,6879368.111586086
1372,10664659.952006646
1509,21327919.460309037
1534,183532822.06449724
2535,9565217.073788938
2688,26694679.506363565
2746,598352271.1032009
2834,25245600.0
2859,0.0
2872,0.0
2910,805646706.6931511
2923,0.0
2984,1172337.5054015206
2,2, 1, 2, 0,18, 0.00,60.00,Monday
9,615348083.3059125
45,435154064.4
682,107346114.0
1056,996838255.0292504
1092,11540448.000000002
1165,17205283.772195463
1190,6829150.264524437
1372,10665896.675457517
1509,40517159.41194318
1534,102164573.04332166
2535,9565217.501757089
2688,26694679.506363565
2746,720505848.2011049
2834,37868400.0
2859,0.0
2872,0.0
2910,974631910.3537927
2923,0.0
2984,1455675.1350243814
2,2, 1, 2, 0,19, 0.00,60.00,Monday
9,615340229.1417124
45,435154064.4
682,107346114.0
1056,1021091878.6463974
1092,11540448.000000002
1165,17199965.23810365
1190,6831918.418951415
1372,31942301.801342504
1509,41762658.64734722
1534,93861754.29874549
2535,18173876.6863324
2688,26694679.506363565
2746,722089308.683292
2834,37868400.0
2859,0.0
2872,0.0
2910,977609128.8450546
2923,0.0
2984,1445052.8163973108
2,2, 1, 2, 0,20, 0.00,60.00,Monday
9,616029930.9146181
45,435154064.4
682,107346114.0
1056,979899077.5517247
1092,11540448.000000002
1165,20566533.765779139
1190,7640717.702051918
1372,31999813.237695915
1509,40174146.94035077
1534,93870611.69906391
2535,23912980.985494436
2688,26694679.506363565
2746,690156867.0283593
2834,37868400.0
2859,0.0
2872,0.0
2910,936358816.3140287
2923,0.0
2984,1325955.3062025635
2,2, 1, 2, 0,21, 0.00,60.00,Monday
9,615926423.8085644
45,435154064.4
682,107346114.0
1056,938164927.887637
1092,11540448.000000002
1165,20384750.383737126
1190,7616468.846930761
1372,21338428.047610634
1509,38951830.251083988
1534,94219119.27641995
2535,21043427.929619805
2688,26694679.506363565
2746,667284615.6157153
2834,37868400.0
2859,0.0
2872,0.0
2910,905286051.8400264
2923,0.0
2984,1246697.0552700172
2,2, 1, 2, 0,22, 0.00,60.00,Monday
9,235360581.27318049
45,85725350.6868
682,105272514.0
1056,43517534.57196984
1092,11540448.000000002
1165,18180444.588537009
1190,6494316.4590621809
1372,31977086.57196984
1509,0.0
1534,0.0
2535,21043423.699242344
2688,0.0
2746,0.0
2834,37868400.0
2859,0.0
2872,0.0
2910,0.0
2923,0.0
2984,0.12731822112625763
2,2, 1, 2, 0,23, 0.00,60.00,Monday
9,234884699.7927815
45,85725350.6868
682,105272514.0
1056,22213436.14817216
1092,11540448.000000002
1165,16494273.516122099
1190,6018435.036573359
1372,10672988.148172159
1509,0.0
1534,0.0
2535,11478258.592921034
2688,0.0
2746,0.0
2834,37868400.0
2859,0.0
2872,0.0
2910,0.0
2923,0.0
2984,0.06940811289720608
2,2, 1, 2, 0,24, 0.00,60.00,Monday
9,238938891.22950966
45,85725350.6868
682,105272514.0
1056,37623817.45213781
1092,11540448.000000002
1165,20207407.868572758
1190,8799117.1592052
1372,21254139.345704799
1509,3212901.0937590228
1534,9207182.845478705
2535,8608697.165141477
2688,1263340.8183978233
2746,5566248.283841622
2834,37868400.0
2859,0.0
2872,0.0
2910,4829230.106433012
2923,0.0
2984,10168.565106559581
2,3, 1, 3, 0, 1, 0.00,60.00,Tuesday
9,241254183.21998275
45,85725350.6868
682,105272514.0
1056,36433399.88989997
1092,11540448.000000002
1165,16701646.816524176
1190,6022253.991030361
1372,72000.0
1509,15237001.60691593
1534,42107262.52063063
2535,4791611.200631284
2688,6316704.091989117
2746,27053147.507667226
2834,37868400.0
2859,0.0
2872,0.0
2910,24820951.889899974
2923,0.0
2984,48960.45016324237
2,3, 1, 3, 0, 2, 0.00,60.00,Tuesday
9,239999445.77733923
45,85725350.6868
682,105272514.0
1056,51382571.66171923
1092,11540448.000000002
1165,16724948.737330236
1190,6026649.739258338
1372,10649731.224220945
1509,17726993.452923098
1534,31466854.997482897
2535,4791611.435369311
2688,5053363.273591293
2746,27177409.521047474
2834,37868400.0
2859,0.0
2872,0.0
2910,29192392.43749829
2923,0.0
2984,53168.077689537364
2,3, 1, 3, 0, 3, 0.00,60.00,Tuesday
9,241288117.28733997
45,85725350.6868
682,105272514.0
1056,61271069.781973
1092,11540448.000000002
1165,16717252.328185998
1190,6038235.430211997
1372,10649791.188378213
1509,22532418.759958414
1534,36605365.06756112
2535,4791611.530940843
2688,6316704.091989117
2746,34456254.84970007
2834,37868400.0
2859,0.0
2872,0.0
2910,39080830.59359478
2923,0.0
2984,66913.07833883594
2,3, 1, 3, 0, 4, 0.00,60.00,Tuesday
9,241932976.02808995
45,85725350.6868
682,105272514.0
1056,80768617.19175205
1092,11540448.000000002
1165,16660411.829757428
1190,6025139.526779928
1372,72000.0
1509,25385307.032290006
1534,25810828.84720274
2535,4791611.508186258
2688,6961039.898211528
2746,54793110.607143398
2834,37868400.0
2859,0.0
2872,0.0
2910,69156169.19175205
2923,0.0
2984,80531.91629844977
2,3, 1, 3, 0, 5, 0.00,60.00,Tuesday
9,254384340.0818221
45,85725350.6868
682,105272514.0
1056,208957135.65689988
1092,11540448.000000002
1165,32957829.82746418
1190,9837962.013602006
1372,10650594.94418987
1509,41558526.47202166
1534,24781682.54441788
2535,4791611.348481705
2688,15532238.105231114
2746,148309247.42135204
2834,37868400.0
2859,0.0
2872,0.0
2910,186766092.71270997
2923,0.0
2984,147875.2761889561
2,3, 1, 3, 0, 6, 0.00,60.00,Tuesday
9,251531116.72676567
45,85725350.6868
682,105272514.0
1056,257187064.3361084
1092,11540448.000000002
1165,30198786.378451334
1190,9198854.722244716
1372,10650522.152276345
1509,64553740.581463489
1534,14064107.818678767
2535,4791611.56423784
2688,13244949.063139735
2746,167232247.4469797
2834,37868400.0
2859,0.0
2872,0.0
2910,234996094.18383206
2923,0.0
2984,221048.25458115946
2,3, 1, 3, 0, 7, 0.00,60.00,Tuesday
9,275481513.2628475
45,85725350.6868
682,107346114.0
1056,2359279551.6579945
1092,11540448.000000002
1165,23347900.695476533
1190,7636016.106347681
1372,72000.0
1509,797248395.4958797
1534,34054947.15621802
2535,4791611.566770962
2688,26694679.506363565
2746,1619060832.6432808
2834,37868400.0
2859,108486.72010398889
2872,12818.061267658797
2910,2347667103.6579945
2923,0.0
2984,10198134.902068535
2,3, 1, 3, 0, 8, 0.00,60.00,Tuesday
9,592035132.0008299
45,435154064.4
682,107346114.0
1056,1629873068.0625356
1092,11540448.000000002
1165,17994210.721150519
1190,6951458.63671025
1372,10666726.496569997
1509,358022504.14096179
1534,40290891.46007304
2535,9583217.952967298
2688,26694679.506363565
2746,1210419850.6670316
2834,12622800.0
2859,39257.64984892984
2872,4057.649540120083
2910,1607665893.5659657
2923,0.0
2984,3261957.808215887
2,3, 1, 3, 0, 9, 0.00,60.00,Tuesday
9,741383709.7745866
45,435154064.4
682,270330255.0
1056,1330588408.3380807
1092,86553360.0
1165,18808013.456966774
1190,7091184.577852045
1372,42772753.88209617
1509,59234116.595362517
1534,107643918.49293864
2535,32582865.31470496
2688,26694679.506363565
2746,875826379.7460945
2834,0.0
2859,113583.20104210262
2872,12166.173789690116
2910,1201262294.4559844
2923,0.0
2984,2101360.116581112
2,3, 1, 3, 0,10, 0.00,60.00,Tuesday
9,741443230.8492032
45,435154064.4
682,270330255.0
1056,1300788482.4777036
1092,86553360.0
1165,19392397.1594524
1190,7189522.042169758
1372,75405091.73244447
1509,42398336.765596788
1534,150009019.93429927
2535,57499337.42192595
2688,26694679.506363565
2746,837752793.2841611
2834,0.0
2859,67166.80336320806
2872,7104.635086789519
2910,1138830030.745259
2923,0.0
2984,2067605.2655830174
2,3, 1, 3, 0,11, 0.00,60.00,Tuesday
9,755770328.3468663
45,435154064.4
682,284728041.0
1056,1287186302.5260065
1092,115404480.0
1165,19566610.600200856
1190,7220487.77757379
1372,86253799.25051734
1509,26011240.52500954
1534,162810301.15311424
2535,60374269.11471747
2688,26694679.506363565
2746,802453212.4248464
2834,0.0
2859,41395.72872512695
2872,4439.554084109413
2910,1085528023.275489
2923,0.0
2984,1968616.10884473
2,3, 1, 3, 0,12, 0.00,60.00,Tuesday
9,758403313.1449881
45,435154064.4
682,284728041.0
1056,1179580437.7193974
1092,115404480.0
1165,22979269.58153214
1190,9983770.756315256
1372,86498701.02064967
1509,8548439.617024983
1534,210492214.55914397
2535,68999153.42876017
2688,26694679.506363565
2746,721003723.6318231
2834,0.0
2859,0.0
2872,0.0
2910,977677256.6987475
2923,0.0
2984,1842757.4823090919
2,3, 1, 3, 0,13, 0.00,60.00,Tuesday
9,755555610.2173258
45,435154064.4
682,284728041.0
1056,1145207979.4170769
1092,115404480.0
1165,19721878.059220595
1190,7250260.266598886
1372,97521166.25099996
1509,6953022.370191345
1534,226388884.16481609
2535,75707062.87852341
2688,26694679.506363565
2746,687426765.6296638
2834,0.0
2859,0.0
2872,0.0
2910,932282333.1660767
2923,0.0
2984,1728565.0443633432
2,3, 1, 3, 0,14, 0.00,60.00,Tuesday
9,741180927.6751008
45,435154064.4
682,270330255.0
1056,1132483555.0875695
1092,57702240.0
1165,20170035.616865718
1190,7322639.167712817
1372,108489187.7554518
1509,6456949.614442547
1534,194560538.14000238
2535,79540479.8581492
2688,26694679.506363565
2746,713979144.7539388
2834,0.0
2859,0.0
2872,0.0
2910,966292127.3321178
2923,0.0
2984,1679289.6010243432
2,3, 1, 3, 0,15, 0.00,60.00,Tuesday
9,741165181.1438761
45,435154064.4
682,270330255.0
1056,1095905259.2256203
1092,57702240.0
1165,20126312.812327338
1190,7313509.045115216
1372,75426707.93839142
1509,6873128.352644389
1534,199917665.37532694
2535,58457659.34556684
2688,26694679.506363565
2746,711553486.9485622
2834,0.0
2859,0.0
2872,0.0
2910,962776311.287229
2923,0.0
2984,1672673.1923970706
2,3, 1, 3, 0,16, 0.00,60.00,Tuesday
9,733869825.3419482
45,435154064.4
682,263131362.0
1056,1059377301.4654832
1092,11540448.000000002
1165,19570459.440872805
1190,7219306.992623858
1372,75518023.07666159
1509,15858778.129944861
1534,202595449.74123065
2535,62290948.21914744
2688,26694679.506363565
2746,719308943.3397503
2834,0.0
2859,0.0
2872,0.0
2910,972318830.3888216
2923,0.0
2984,1670412.4429607019
2,3, 1, 3, 0,17, 0.00,60.00,Tuesday
9,758737259.2947903
45,435154064.4
682,263131362.0
1056,1011080432.4345503
1092,11540448.000000002
1165,16969033.885442798
1190,6783539.458926205
1372,10666742.093062193
1509,26520651.081544095
1534,184252260.12219084
2535,9583215.96119688
2688,26694679.506363565
2746,732568691.2181151
2834,25245600.0
2859,0.0
2872,0.0
2910,988873242.3414881
2923,0.0
2984,1728013.9295004165
2,3, 1, 3, 0,18, 0.00,60.00,Tuesday
9,615733540.3411086
45,435154064.4
682,107346114.0
1056,1157608185.9559165
1092,11540448.000000002
1165,16768858.250004173
1190,6749435.28986976
1372,21261483.844382448
1509,46368404.6607782
1534,98211161.81961106
2535,9583216.857585475
2688,26694679.506363565
2746,833319383.7236958
2834,37868400.0
2859,0.0
2872,0.0
2910,1124806254.1115339
2923,0.0
2984,1920847.1448751826
2,3, 1, 3, 0,19, 0.00,60.00,Tuesday
9,615766575.3209947
45,435154064.4
682,107346114.0
1056,1189837441.9871224
1092,11540448.000000002
1165,16748594.694052719
1190,6745979.983005985
1372,21318900.11162745
1509,50701449.914784748
1534,85409276.77618493
2535,18208050.30355894
2688,26694679.506363565
2746,849769182.7817962
2834,37868400.0
2859,0.0
2872,0.0
2910,1156978093.875495
2923,0.0
2984,1957337.4316250925
2,3, 1, 3, 0,20, 0.00,60.00,Tuesday
9,615793995.2102114
45,435154064.4
682,107346114.0
1056,1215085505.3440755
1092,11540448.000000002
1165,16770438.5339245
1190,6749802.479659496
1372,32005961.103735415
1509,53755634.39209412
1534,78194310.91976834
2535,23958053.75774146
2688,26694679.506363565
2746,859871573.9548998
2834,37868400.0
2859,0.0
2872,0.0
2910,1171539096.24034
2923,0.0
2984,1980934.8241882264
2,3, 1, 3, 0,21, 0.00,60.00,Tuesday
9,615814415.4100962
45,435154064.4
682,107346114.0
1056,1225931442.1544502
1092,11540448.000000002
1165,16781492.568469854
1190,6751860.339462755
1372,31971158.169332766
1509,57378304.08794317
1534,74065393.90761556
2535,21083051.33381781
2688,26694679.506363565
2746,867536049.9211872
2834,37868400.0
2859,0.0
2872,0.0
2910,1182419835.9851177
2923,0.0
2984,1999297.1642697487
2,3, 1, 3, 0,22, 0.00,60.00,Tuesday
9,234656672.68106307
45,85725350.6868
682,105272514.0
1056,32881005.817846326
1092,11540448.000000002
1165,15358396.106662648
1190,5790407.867001156
1372,21340557.81784632
1509,0.0
1534,0.0
2535,21083070.490159818
2688,0.0
2746,0.0
2834,37868400.0
2859,0.0
2872,0.0
2910,0.0
2923,0.0
2984,0.1272618503244374
2,3, 1, 3, 0,23, 0.00,60.00,Tuesday
9,238612017.6582446