Program Version,EnergyPlus, Version 9.2.0-921312fa1d, YMD=2020.12.22 18:07
1,5,Environment Title[],Latitude[deg],Longitude[deg],Time Zone[],Elevation[m]
2,8,Day of Simulation[],Month[],Day of Month[],DST Indicator[1=yes 0=no],Hour[],StartMinute[],EndMinute[],DayType
3,5,Cumulative Day of Simulation[],Month[],Day of Month[],DST Indicator[1=yes 0=no],DayType  ! When Daily Meters Requested
4,2,Cumulative Days of Simulation[],Month[]  ! When Monthly Meters Requested
5,1,Cumulative Days of Simulation[] ! When Run Period Meters Requested
6,1,Calendar Year of Simulation[] ! When Annual Meters Requested
9,1,Electricity:Facility [J] !Hourly
2923,1,Heating:Electricity [J] !Hourly
2872,1,Cooling:Electricity [J] !Hourly
45,1,InteriorLights:Electricity [J] !Hourly
2834,1,ExteriorLights:Electricity [J] !Hourly
682,1,InteriorEquipment:Electricity [J] !Hourly
2688,1,Fans:Electricity [J] !Hourly
2984,1,Pumps:Electricity [J] !Hourly
1190,1,Refrigeration:Electricity [J] !Hourly
1056,1,Gas:Facility [J] !Hourly
2910,1,Heating:Gas [J] !Hourly
1092,1,InteriorEquipment:Gas [J] !Hourly
1372,1,WaterSystems:Gas [J] !Hourly
1509,1,Heating:EnergyTransfer [J] !Hourly
1534,1,Cooling:EnergyTransfer [J] !Hourly
2535,1,WaterSystems:EnergyTransfer [J] !Hourly
1165,1,Refrigeration:EnergyTransfer [J] !Hourly
2746,1,HeatingCoils:EnergyTransfer [J] !Hourly
2859,1,CoolingCoils:EnergyTransfer [J] !Hourly
End of Data Dictionary
1,RUNPERIOD 1,  41.98, -87.92,  -6.00, 201.00
2,1, 1, 1, 0, 1, 0.00,60.00,Holiday
9,213351298.3303812
45,57110192.35920001
682,105272514.0
1056,336307281.85145476
1092,11540448.000000002
1165,15996369.723884915
1190,5904746.418364213
1372,72000.0
1509,87506227.47484792
1534,4432168.386858862
2535,2864062.8068676136
2688,13916729.50444315
2746,235327212.3678462
2834,30870000.0
2859,0.0
2872,0.0
2910,324694833.85145476
2923,0.0
2984,277116.04837385829
2,1, 1, 1, 0, 2, 0.00,60.00,Holiday
9,214869303.95598049
45,57110192.35920001
682,105272514.0
1056,380864663.9139758
1092,11540448.000000002
1165,15867129.38483279
1190,5882941.506480392
1372,72000.0
1509,119338677.76200298
1534,5089941.144510902
2535,2864062.816929088
2688,15326235.366375704
2746,272578130.75531128
2834,30870000.0
2859,0.0
2872,0.0
2910,369252215.9139758
2923,0.0
2984,407420.72392438558
2,1, 1, 1, 0, 3, 0.00,60.00,Holiday
9,217382546.3483273
45,57110192.35920001
682,105272514.0
1056,468668620.6258483
1092,11540448.000000002
1165,15808180.420040358
1190,5872994.002895659
1372,10379501.29702611
1509,152718220.81435357
1534,3525928.0293263595
2535,2864062.816770774
2688,17709493.882448786
2746,332335550.8732944
2834,30870000.0
2859,0.0
2872,0.0
2910,446748671.32882216
2923,0.0
2984,547352.1037828634
2,1, 1, 1, 0, 4, 0.00,60.00,Holiday
9,215185289.1175758
45,57110192.35920001
682,105272514.0
1056,388708451.1795802
1092,11540448.000000002
1165,15750396.979948122
1190,5863246.883105334
1372,72000.0
1509,140622432.8712465
1534,3319761.4391327847
2535,2864062.817019254
2688,15582493.561103588
2746,291243241.46523436
2834,30870000.0
2859,0.0
2872,0.0
2910,377096003.1795802
2923,0.0
2984,486842.3141668672
2,1, 1, 1, 0, 5, 0.00,60.00,Holiday
9,219042578.1883942
45,57110192.35920001
682,105272514.0
1056,504409157.5725733
1092,11540448.000000002
1165,18982080.111801737
1190,6624179.669032898
1372,10379524.407799719
1509,181397946.60721485
1534,1695388.154824794
2535,2864062.8169011247
2688,18478268.46663244
2746,359229251.64972046
2834,30870000.0
2859,0.0
2872,0.0
2910,482489185.1647736
2923,0.0
2984,687423.6935288064
2,1, 1, 1, 0, 6, 0.00,60.00,Holiday
9,216452221.30041576
45,57110192.35920001
682,105272514.0
1056,414760619.3513448
1092,11540448.000000002
1165,18716881.52075254
1190,6565631.871451376
1372,72000.0
1509,161822227.32053123
1534,1547381.350512639
2535,2864062.8170199326
2688,16043758.31161378
2746,311387246.9827176
2834,30870000.0
2859,0.0
2872,0.0
2910,403148171.3513448
2923,0.0
2984,590124.7581505755
2,1, 1, 1, 0, 7, 0.00,60.00,Holiday
9,219596940.45541949
45,57110192.35920001
682,105272514.0
1056,527920653.22579726
1092,11540448.000000002
1165,19272361.45460108
1190,6610059.657860326
1372,10379460.934243853
1509,202697794.54842914
1534,1200513.1167101637
2535,2864062.816938822
2688,18939533.21714263
2746,379250923.72242119
2834,30870000.0
2859,0.0
2872,0.0
2910,506000744.2915534
2923,0.0
2984,794641.2212164997
2,1, 1, 1, 0, 8, 0.00,60.00,Holiday
9,195396099.88988076
45,57110192.35920001
682,105272514.0
1056,359972431.70980486
1092,11540448.000000002
1165,18423793.310697155
1190,6375577.146734236
1372,72000.0
1509,131966429.66358455
1534,1480354.0736370427
2535,2864062.817010399
2688,15890003.39477705
2746,280244925.95575156
2834,10290000.0
2859,0.0
2872,0.0
2910,348359983.7098048
2923,0.0
2984,457812.989169433
2,1, 1, 1, 0, 9, 0.00,60.00,Holiday
9,184300326.81811638
45,57110192.35920001
682,105272514.0
1056,375012886.1253332
1092,11540448.000000002
1165,18644834.50901414
1190,6413296.633406557
1372,10386028.566872567
1509,104872738.43250196
1534,3839522.695467421
2535,4773437.859117128
2688,15105766.698633898
2746,270596800.9858377
2834,0.0
2859,0.0
2872,0.0
2910,353086409.5584606
2923,0.0
2984,398557.126875873
2,1, 1, 1, 0,10, 0.00,60.00,Holiday
9,179927165.11642675
45,57110192.35920001
682,105272514.0
1056,196189430.14287705
1092,11540448.000000002
1165,19103913.13752922
1190,6490587.657170886
1372,72000.0
1509,48145334.79364967
1534,15300437.32018729
2535,4773438.019659136
2688,10889395.335133762
2746,147147665.3925576
2834,0.0
2859,0.0
2872,0.0
2910,184576982.14287705
2923,0.0
2984,164475.76492206986
2,1, 1, 1, 0,11, 0.00,60.00,Holiday
9,182241375.79155983
45,57110192.35920001
682,105272514.0
1056,220587909.59129066
1092,11540448.000000002
1165,18831239.08195685
1190,6445101.932423955
1372,10385643.865550999
1509,49001481.63094774
1534,29354819.983087429
2535,4773437.841568501
2688,13253907.345359903
2746,154977897.97937
2834,0.0
2859,0.0
2872,0.0
2910,198661817.72573967
2923,0.0
2984,159660.1545759349
2,1, 1, 1, 0,12, 0.00,60.00,Holiday
9,180634228.3072671
45,57110192.35920001
682,105272514.0
1056,134878453.66683445
1092,11540448.000000002
1165,21440663.608225086
1190,9043016.285354848
1372,10385711.611375632
1509,23136021.23648451
1534,25551992.820080185
2535,4773438.007733125
2688,9140170.139359774
2746,90245204.65190646
2834,0.0
2859,0.0
2872,0.0
2910,112952294.05545882
2923,0.0
2984,68335.52335244835
2,1, 1, 1, 0,13, 0.00,60.00,Holiday
9,176151104.40494476
45,57110192.35920001
682,105272514.0
1056,73269139.40285431
1092,11540448.000000002
1165,18380712.136269
1190,6370318.464579767
1372,72000.0
1509,16910535.58839121
1534,30913866.30121225
2535,4773437.995716607
2688,7335915.494320806
2746,50916262.47328293
2834,0.0
2859,0.0
2872,0.0
2910,61656691.4028543
2923,0.0
2984,62164.08684412962
2,1, 1, 1, 0,14, 0.00,60.00,Holiday
9,173425640.6816218
45,57110192.35920001
682,105272514.0
1056,43431227.05300447
1092,11540448.000000002
1165,19242536.46487485
1190,6514242.979292275
1372,10385742.361542393
1509,5288001.8605884839
1534,21461993.40814152
2535,4773437.83607142
2688,4495770.878429486
2746,19166408.334024077
2834,0.0
2859,0.0
2872,0.0
2910,21505036.691462086
2923,0.0
2984,32920.46470002963
2,1, 1, 1, 0,15, 0.00,60.00,Holiday
9,172293363.44917054
45,57110192.35920001
682,105272514.0
1056,24266788.886403506
1092,11540448.000000002
1165,19550376.34364723
1190,6565725.927237735
1372,72000.0
1509,2530117.5128571207
1534,17425415.019386826
2535,2864062.813256142
2688,3325991.2108292465
2746,11282110.175952316
2834,0.0
2859,0.0
2872,0.0
2910,12654340.886403505
2923,0.0
2984,18939.951903508307
2,1, 1, 1, 0,16, 0.00,60.00,Holiday
9,172437183.34464426
45,57110192.35920001
682,105272514.0
1056,35477554.605266179
1092,11540448.000000002
1165,19306571.866483336
1190,6525170.274728233
1372,10379148.35986371
1509,2712773.8104978438
1534,18055370.37748795
2535,2864062.7840635667
2688,3509339.0028007205
2746,11901548.767523606
2834,0.0
2859,0.0
2872,0.0
2910,13557958.245402467
2923,0.0
2984,19967.707915247778
2,1, 1, 1, 0,17, 0.00,60.00,Holiday
9,192671834.25685419
45,57110192.35920001
682,105272514.0
1056,27585912.843094835
1092,11540448.000000002
1165,17214839.991282364
1190,6176613.645498598
1372,72000.0
1509,3238962.932500873
1534,16274145.363951277
2535,2864062.815255383
2688,3509339.0028007205
2746,13570168.646680758
2834,20580000.0
2859,0.0
2872,0.0
2910,15973464.843094835
2923,0.0
2984,23175.249354809013
2,1, 1, 1, 0,18, 0.00,60.00,Holiday
9,202965236.97461797
45,57110192.35920001
682,105272514.0
1056,40166216.96962561
1092,11540448.000000002
1165,17217539.166283475
1190,6177074.245134575
1372,10379324.416739576
1509,4193031.102248234
1534,15205376.787280206
2535,2864062.7899734836
2688,3509339.0028007205
2746,15136090.835705053
2834,30870000.0
2859,0.0
2872,0.0
2910,18246444.55288603
2923,0.0
2984,26117.367482645215
2,1, 1, 1, 0,19, 0.00,60.00,Holiday
9,205329399.28825826
45,57110192.35920001
682,105272514.0
1056,49340148.44717013
1092,11540448.000000002
1165,17202978.609321409
1190,6174589.564729049
1372,72000.0
1509,9761995.898820784
1534,22246950.317123187
2535,2864062.815255228
2688,5848898.338001201
2746,30171207.11357349
2834,30870000.0
2859,0.0
2872,0.0
2910,37727700.44717014
2923,0.0
2984,53205.02632795386
2,1, 1, 1, 0,20, 0.00,60.00,Holiday
9,204919683.96568723
45,57110192.35920001
682,105272514.0
1056,54981392.19589148
1092,11540448.000000002
1165,20472385.835387794
1190,6941839.578774855
1372,10379499.929701126
1509,8316734.810807297
1534,15587755.793097644
2535,2864062.813416509
2688,4679118.67040096
2746,26062001.515188796
2834,30870000.0
2859,0.0
2872,0.0
2910,33061444.26619035
2923,0.0
2984,46019.35731135107
2,1, 1, 1, 0,21, 0.00,60.00,Holiday
9,206053368.12411536
45,57110192.35920001
682,105272514.0
1056,57330223.87090982
1092,11540448.000000002
1165,20239552.519211424
1190,6888706.212244563
1372,72000.0
1509,12132666.913428786
1534,17946616.119648328
2535,2864062.803269234
2688,5848898.338001201
2746,35409360.98513584
2834,30870000.0
2859,0.0
2872,0.0
2910,45717775.87090982
2923,0.0
2984,63057.214669530185
2,1, 1, 1, 0,22, 0.00,60.00,Holiday
9,209457684.84503738
45,57110192.35920001
682,105272514.0
1056,156129712.2190343
1092,11540448.000000002
1165,18490724.348228307
1190,6480885.168612238
1372,10379495.434350128
1509,24462168.19488263
1534,5824190.587189008
2535,2864062.8152322855
2688,9635842.524799642
2746,102351397.67430467
2834,30870000.0
2859,0.0
2872,0.0
2910,134209768.78468418
2923,0.0
2984,88250.79242549816
2,1, 1, 1, 0,23, 0.00,60.00,Holiday
9,211598222.90496022
45,57110192.35920001
682,105272514.0
1056,197262757.7358734
1092,11540448.000000002
1165,16094366.680560183
1190,5921278.192015757
1372,72000.0
1509,36689958.63387401
1534,3922954.8820044465
2535,2864062.8036104824
2688,12292639.348719489
2746,140281232.77810738
2834,30870000.0
2859,0.0
2872,0.0
2910,185650309.7358734
2923,0.0
2984,131599.00502499564
2,1, 1, 1, 0,24, 0.00,60.00,Holiday
9,213726678.55344356
45,57110192.35920001
682,105272514.0
1056,186672051.62584267
1092,11540448.000000002
1165,19122323.040937719
1190,8584787.976948582
1372,72000.0
1509,40347290.1560813
1534,6069558.008936834
2535,2864062.8164033435
2688,11746497.505814543
2746,133177538.42784345
2834,30870000.0
2859,0.0
2872,0.0
2910,175059603.62584267
2923,0.0
2984,142686.71148043034
2,2, 1, 2, 0, 1, 0.00,60.00,Monday
9,214678066.88386408
45,57110192.35920001
682,105272514.0
1056,281156842.03102496
1092,11540448.000000002
1165,16049112.71438174
1190,5913645.004275601
1372,10385842.415646295
1509,64521410.294765967
1534,6711112.051646053
2535,4782611.604336631
2688,15296314.09210524
2746,194419070.8118983
2834,30870000.0
2859,0.0
2872,0.0
2910,259230551.61537863
2923,0.0
2984,215401.42828318769
2,2, 1, 2, 0, 2, 0.00,60.00,Monday
9,211831427.2676007
45,57110192.35920001
682,105272514.0
1056,242961236.4563403
1092,11540448.000000002
1165,16025029.344740488
1190,5909581.754699314
1372,10385260.57154239
1509,58560726.88266447
1534,4604450.71022604
2535,4782611.7151518729
2688,12481475.054690648
2746,167040453.80867554
2834,30870000.0
2859,0.0
2872,0.0
2910,221035527.8847979
2923,0.0
2984,187664.09901073739
2,2, 1, 2, 0, 3, 0.00,60.00,Monday
9,215216557.9365869
45,57110192.35920001
682,105272514.0
1056,297609149.4674774
1092,11540448.000000002
1165,16001418.734804431
1190,5905596.385333867
1372,72000.0
1509,79768953.09620196
1534,5573811.17284631
2535,4782611.745337225
2688,15800517.506828802
2746,216025412.70747955
2834,30870000.0
2859,0.0
2872,0.0
2910,285996701.4674774
2923,0.0
2984,257737.68522422415
2,2, 1, 2, 0, 4, 0.00,60.00,Monday
9,212111524.68199034
45,57110192.35920001
682,105272514.0
1056,253289933.5439533
1092,11540448.000000002
1165,15974848.493275032
1190,5901115.442613751
1372,10385789.187285165
1509,66973629.68514908
1534,4117905.8607003989
2535,4782611.706803441
2688,12746373.305977975
2746,176553269.4686606
2834,30870000.0
2859,0.0
2872,0.0
2910,231363696.3566681
2923,0.0
2984,211329.57419860335
2,2, 1, 2, 0, 5, 0.00,60.00,Monday
9,216119471.78479044
45,57110192.35920001
682,105272514.0
1056,300363833.6624282
1092,11540448.000000002
1165,19255962.04512453
1190,6670387.930837791
1372,10386075.513484784
1509,81161752.88435923
1534,4584356.255963361
2535,4782611.631780185
2688,15932966.632472463
2746,212629392.58845873
2834,30870000.0
2859,0.0
2872,0.0
2910,278437310.1489434
2923,0.0
2984,263410.8622801391
2,2, 1, 2, 0, 6, 0.00,60.00,Monday
9,212814197.36837823
45,57110192.35920001
682,105272514.0
1056,224389947.22893355
1092,11540448.000000002
1165,19039018.287042057
1190,6619981.4952220809
1372,72000.0
1509,61676135.78005616
1534,3552155.7450488817
2535,4782611.745999635
2688,12746373.305977975
2746,164416461.49031515
2834,30870000.0
2859,0.0
2872,0.0
2910,212777499.22893355
2923,0.0
2984,195136.207978133
2,2, 1, 2, 0, 7, 0.00,60.00,Monday
9,235191498.74356628
45,57110192.35920001
682,107346114.0
1056,1930584504.320707
1092,11540448.000000002
1165,17864475.136529037
1190,6365815.212426192
1372,10385991.804290055
1509,672898219.1696371
1534,19828399.728660868
2535,4782611.677242128
2688,26201683.414542837
2746,1377503674.1427429
2834,30870000.0
2859,208377.0278597512
2872,24955.556773599248
2910,1908658064.5164173
2923,0.0
2984,7272738.200623611
2,2, 1, 2, 0, 8, 0.00,60.00,Monday
9,445605494.00172689
45,289899453.59999999
682,107346114.0
1056,1585347339.4827166
1092,11540448.000000002
1165,17889824.518787777
1190,6933747.685529466
1372,10400767.656453923
1509,492568219.3267018
1534,28202081.7037863
2535,9565216.693282942
2688,26201683.414542837
2746,1209213390.1689165
2834,10290000.0
2859,15196.803322214262
2872,1723.2296072785414
2910,1563406123.826263
2923,0.0
2984,4932772.072047374
2,2, 1, 2, 0, 9, 0.00,60.00,Monday
9,595159230.6732926
45,289899453.59999999
682,270330255.0
1056,1136645509.0932716
1092,86553360.0
1165,18768411.552333058
1190,7084644.021299893
1372,41701019.75747621
1509,90409127.7719496
1534,42121758.31844732
2535,32521686.34382645
2688,26201683.414542837
2746,787365539.615279
2834,0.0
2859,171989.7526158453
2872,20614.94081829507
2910,1008391129.3357953
2923,0.0
2984,1622579.6966317625
2,2, 1, 2, 0,10, 0.00,60.00,Monday
9,594934728.5121735
45,289899453.59999999
682,270330255.0
1056,1039937163.5777092
1092,86553360.0
1165,19497524.425078636
1190,7220498.208335853
1372,73520943.96866153
1509,44805255.84227234
1534,92491770.90522301
2535,57391339.19172921
2688,26201683.414542837
2746,672522881.407129
2834,0.0
2859,76340.2735508368
2872,9477.79879631483
2910,879862859.6090477
2923,0.0
2984,1273360.4904986053
2,2, 1, 2, 0,11, 0.00,60.00,Monday
9,609175853.8967288
45,289899453.59999999
682,284728041.0
1056,956663998.967819
1092,115404480.0
1165,19722405.005846126
1190,7292264.632024191
1372,84100829.46957298
1509,23432527.747396344
1534,133629929.17183241
2535,60260901.88414658
2688,26201683.414542837
2746,580320490.436738
2834,0.0
2859,92091.231713341
2872,11836.801634607054
2910,757158689.4982461
2923,0.0
2984,1042574.4485272613
2,2, 1, 2, 0,12, 0.00,60.00,Monday
9,611804305.6218166
45,289899453.59999999
682,284728041.0
1056,840506029.8935664
1092,115404480.0
1165,23127625.537988925
1190,10038367.072312847
1372,84335185.63978458
1509,8593414.61961706
1534,197403603.37767364
2535,68869558.95935282
2688,26201683.414542837
2746,490045241.9689003
2834,0.0
2859,0.0
2872,0.0
2910,640766364.2537817
2923,0.0
2984,936760.5349610536
2,2, 1, 2, 0,13, 0.00,60.00,Monday
9,609078414.3087717
45,289899453.59999999
682,284728041.0
1056,826114291.2052835
1092,115404480.0
1165,19904371.86042986
1190,7343083.430531906
1372,95089117.02251773
1509,4582948.879495078
1534,219046057.89595623
2535,75565259.74385378
2688,26201683.414542837
2746,470225933.700487
2834,0.0
2859,0.0
2872,0.0
2910,615620694.1827657
2923,0.0
2984,906152.863697073
2,2, 1, 2, 0,14, 0.00,60.00,Monday
9,594836742.6125441
45,289899453.59999999
682,270330255.0
1056,862571879.6984569
1092,57702240.0
1165,20402450.51637186
1190,7388583.263513177
1372,95204031.20892921
1509,3550571.2416235499
1534,190129367.59639169
2535,79391054.55535047
2688,26201683.414542837
2746,538878618.7073726
2834,0.0
2859,0.0
2872,0.0
2910,709665608.4895277
2923,0.0
2984,1016767.3344881216
2,2, 1, 2, 0,15, 0.00,60.00,Monday
9,594954693.0447098
45,289899453.59999999
682,270330255.0
1056,883598038.7242814
1092,57702240.0
1165,20439709.02942362
1190,7368342.990935637
1372,73538213.53255023
1509,3018886.245084504
1534,196622498.58599273
2535,58347856.9085252
2688,26201683.414542837
2746,574112520.7144868
2834,0.0
2859,0.0
2872,0.0
2910,752357585.1917312
2923,0.0
2984,1154958.0392314925
2,2, 1, 2, 0,16, 0.00,60.00,Monday
9,587607976.8250802
45,289899453.59999999
682,263131362.0
1056,828498079.2713726
1092,11540448.000000002
1165,19918315.105315098
1190,7287308.816338373
1372,84147783.91208405
1509,6253553.247201671
1534,195369044.93125428
2535,62173950.2467635
2688,26201683.414542837
2746,564498239.74232
2834,0.0
2859,0.0
2872,0.0
2910,732809847.3592886
2923,0.0
2984,1088168.9941990097
2,2, 1, 2, 0,17, 0.00,60.00,Monday
9,607755261.4343876
45,289899453.59999999
682,263131362.0
1056,743005858.8309891
1092,11540448.000000002
1165,17380779.859792647
1190,6876981.637096084
1372,10399807.779899203
1509,7218849.160911311
1534,174858346.04274965
2535,9565217.073314297
2688,26201683.414542837
2746,554676863.9592509
2834,20580000.0
2859,0.0
2872,0.0
2910,721065603.05109
2923,0.0
2984,1065780.782748797
2,2, 1, 2, 0,18, 0.00,60.00,Monday
9,462480672.7434268
45,289899453.59999999
682,107346114.0
1056,892707966.0454989
1092,11540448.000000002
1165,17183396.949023267
1190,6825438.547651407
1372,10401044.57885321
1509,26566010.71036625
1534,98907036.52004357
2535,9565217.502308766
2688,26201683.414542837
2746,668844370.5566223
2834,30870000.0
2859,0.0
2872,0.0
2910,870766473.4666455
2923,0.0
2984,1337983.1812326099
2,2, 1, 2, 0,19, 0.00,60.00,Monday
9,462500504.5675139
45,289899453.59999999
682,107346114.0
1056,931104576.5589032
1092,11540448.000000002
1165,17170747.12919367
1190,6826960.363455663
1372,31145530.206955539
1509,30232034.23340682
1534,81036815.07934088
2535,18173876.694795744
2688,26201683.414542837
2746,682430729.9435685
2834,30870000.0
2859,0.0
2872,0.0
2910,888418598.3519476
2923,0.0
2984,1356293.189515465
2,2, 1, 2, 0,20, 0.00,60.00,Monday
9,463220254.5434044
45,289899453.59999999
682,107346114.0
1056,906699706.3460118
1092,11540448.000000002
1165,20528273.149761544
1190,7634221.967986349
1372,31201603.79453288
1509,31556967.493262866
1534,73631592.30798628
2535,23912981.002631558
2688,26201683.414542837
2746,661931263.536333
2834,30870000.0
2859,0.0
2872,0.0
2910,863957654.5514789
2923,0.0
2984,1268781.5608752829
2,2, 1, 2, 0,21, 0.00,60.00,Monday
9,463136620.9424729
45,289899453.59999999
682,107346114.0
1056,876621507.5462797
1092,11540448.000000002
1165,20339331.453339064
1190,7608755.5082386159
1372,20806757.95915404
1509,32319252.89333666
1534,69013702.38328812
2535,21043427.939226144
2688,26201683.414542837
2746,646747163.2637042
2834,30870000.0
2859,0.0
2872,0.0
2910,844274301.5871255
2923,0.0
2984,1210614.4196915595
2,2, 1, 2, 0,22, 0.00,60.00,Monday
9,199765910.794612
45,57110192.35920001
682,105272514.0
1056,42719893.22729745
1092,11540448.000000002
1165,18292122.209863336
1190,6513204.30809374
1372,31179445.227297449
1509,0.0
1534,0.0
2535,21043423.690720586
2688,0.0
2746,0.0
2834,30870000.0
2859,0.0
2872,0.0
2910,0.0
2923,0.0
2984,0.12731822256806395
2,2, 1, 2, 0,23, 0.00,60.00,Monday
9,199331948.55770473
45,57110192.35920001
682,105272514.0
1056,21948406.754893993
1092,11540448.000000002
1165,16852043.383593747
1190,6079242.129096575
1372,10407958.754893993
1509,0.0
1534,0.0
2535,11478258.593967069
2688,0.0
2746,0.0
2834,30870000.0
2859,0.0
2872,0.0
2910,0.0
2923,0.0
2984,0.06940811377601627
2,2, 1, 2, 0,24, 0.00,60.00,Monday
9,202149613.13777418
45,57110192.35920001
682,105272514.0
1056,32264185.539759406
1092,11540448.000000002
1165,20786493.953785935
1190,8896906.726456674
1372,20723737.539759406
1509,0.0
1534,0.0
2535,8608696.79538843
2688,0.0
2746,0.0
2834,30870000.0
2859,0.0
2872,0.0
2910,0.0
2923,0.0
2984,0.052117479906087896
2,3, 1, 3, 0, 1, 0.00,60.00,Tuesday
9,199399301.34892
45,57110192.35920001
682,105272514.0
1056,11612448.000000002
1092,11540448.000000002
1165,17431064.32833653
1190,6146594.960835245
1372,72000.0
1509,0.0
1534,0.0
2535,4791611.103598229
2688,0.0
2746,0.0
2834,30870000.0
2859,0.0
2872,0.0
2910,0.0
2923,0.0
2984,0.028884704901309636
2,3, 1, 3, 0, 2, 0.00,60.00,Tuesday
9,199390125.22103889
45,57110192.35920001
682,105272514.0
1056,21925730.5388534
1092,11540448.000000002
1165,17375447.14900577
1190,6137418.832846171
1372,10385282.5388534
1509,0.0
1534,0.0
2535,4791611.045963935
2688,0.0
2746,0.0
2834,30870000.0
2859,0.0
2872,0.0
2910,0.0
2923,0.0
2984,0.02899270480081366
2,3, 1, 3, 0, 3, 0.00,60.00,Tuesday
9,199386321.29186616
45,57110192.35920001
682,105272514.0
1056,21925789.42130854
1092,11540448.000000002
1165,17278144.403520839
1190,6133614.90371205
1372,10385341.421308538
1509,0.0
1534,0.0
2535,4791611.500281486
2688,0.0
2746,0.0
2834,30870000.0
2859,0.0
2872,0.0
2910,0.0
2923,0.0
2984,0.028954084784190503
2,3, 1, 3, 0, 4, 0.00,60.00,Tuesday
9,199368374.06887196
45,57110192.35920001
682,105272514.0
1056,11612448.000000002
1092,11540448.000000002
1165,17193128.02283938
1190,6115667.680791866
1372,72000.0
1509,0.0
1534,0.0
2535,4791611.090075854
2688,0.0
2746,0.0
2834,30870000.0
2859,0.0
2872,0.0
2910,0.0
2923,0.0
2984,0.028880052046318873
2,3, 1, 3, 0, 5, 0.00,60.00,Tuesday
9,203173783.1540377
45,57110192.35920001
682,105272514.0
1056,21925847.61794448
1092,11540448.000000002
1165,33456518.340944768
1190,9921076.76584877
1372,10385399.617944479
1509,0.0
1534,0.0
2535,4791611.066705948
2688,0.0
2746,0.0
2834,30870000.0
2859,0.0
2872,0.0
2910,0.0
2923,0.0
2984,0.02898894362254282
2,3, 1, 3, 0, 6, 0.00,60.00,Tuesday
9,202549593.59176184
45,57110192.35920001
682,105272514.0
1056,21925905.734380939
1092,11540448.000000002
1165,30767137.385120509
1190,9296887.20360142
1372,10385457.734380935
1509,0.0
1534,0.0
2535,4791611.519444792
2688,0.0
2746,0.0
2834,30870000.0
2859,0.0
2872,0.0
2910,0.0
2923,0.0
2984,0.028960372834296416
2,3, 1, 3, 0, 7, 0.00,60.00,Tuesday
9,235648054.06544847
45,57110192.35920001
682,107346114.0
1056,1849822759.271508
1092,11540448.000000002
1165,23613701.03201133
1190,7681069.067636039
1372,72000.0
1509,581392138.3281474
1534,33107314.31706936
2535,4791611.5658914879
2688,26201683.414542837
2746,1370331048.623668
2834,30870000.0
2859,85730.59934565105
2872,10283.702971890783
2910,1838210311.271508
2923,0.0
2984,6428711.5210976409
2,3, 1, 3, 0, 8, 0.00,60.00,Tuesday
9,443674626.1658789
45,289899453.59999999
682,107346114.0
1056,1445524248.434119
1092,11540448.000000002
1165,18027491.698699275
1190,6957127.371655239
1372,10401731.802293955
1509,286662467.40575608
1534,35450197.924862
2535,9583218.405135364
2688,26201683.414542837
2746,1100754499.0858753
2834,10290000.0
2859,26599.746835866237
2872,2753.379160738754
2910,1423582068.631825
2923,0.0
2984,2977494.4005201787
2,3, 1, 3, 0, 9, 0.00,60.00,Tuesday
9,595404127.987968
45,289899453.59999999
682,270330255.0
1056,1164213888.447975
1092,86553360.0
1165,18812020.36495617
1190,7091892.96716652
1372,41705221.01442968
1509,31901289.132177865
1534,124412550.0003959
2535,32582865.2666637
2688,26201683.414542837
2746,786099193.1924256
2834,0.0
2859,115578.45211979783
2872,12426.431959089245
2910,1035955307.4335454
2923,0.0
2984,1868416.5742996145
2,3, 1, 3, 0,10, 0.00,60.00,Tuesday
9,595499611.7376082
45,289899453.59999999
682,270330255.0
1056,1166959877.8712388
1092,86553360.0
1165,19392408.785490358
1190,7189550.144701277
1372,73521730.84537277
1509,19144907.08782691
1534,149103450.58163826
2535,57499337.42175641
2688,26201683.414542837
2746,770409789.8256226
2834,0.0
2859,68702.07990523457
2872,7297.834045228587
2910,1006884787.025866
2923,0.0
2984,1871371.7443189324
2,3, 1, 3, 0,11, 0.00,60.00,Tuesday
9,609840975.4238099
45,289899453.59999999
682,284728041.0
1056,1167181118.2285383
1092,115404480.0
1165,19562543.80988556
1190,7219820.17013585
1372,84099215.64984167
1509,10013930.711636577
1534,163493203.3744508
2535,60374269.110822979
2688,26201683.414542837
2746,741609380.2730966
2834,0.0
2859,42090.44667507304
2872,4531.558851486232
2910,967677422.5786967
2923,0.0
2984,1787445.6802798156
2,3, 1, 3, 0,12, 0.00,60.00,Tuesday
9,612480396.888884
45,289899453.59999999
682,284728041.0
1056,1063706834.5004075
1092,115404480.0
1165,22959247.763900378
1190,9979283.453473343
1372,84337994.90396092
1509,4180350.4460768958
1534,221786271.2178203
2535,68999153.43110043
2688,26201683.414542837
2746,661679106.6686475
2834,0.0
2859,0.0
2872,0.0
2910,863964359.5964465
2923,0.0
2984,1671935.420867787
2,3, 1, 3, 0,13, 0.00,60.00,Tuesday
9,609647390.8888534
45,289899453.59999999
682,284728041.0
1056,1032494919.0664796
1092,115404480.0
1165,19725013.767633015
1190,7250867.836143243
1372,95084885.20610047
1509,3161827.612043909
1534,237507826.04271765
2535,75707062.80058901
2688,26201683.414542837
2746,629388088.5214477
2834,0.0
2859,0.0
2872,0.0
2910,822005553.860379
2923,0.0
2984,1567345.038167518
2,3, 1, 3, 0,14, 0.00,60.00,Tuesday
9,595276161.2678857
45,289899453.59999999
682,270330255.0
1056,1020332617.1978198
1092,57702240.0
1165,20171029.129066577
1190,7322861.740972774
1372,105778709.6271446
1509,2362598.1080203328
1534,205303841.36971466
2535,79540479.88361554
2688,26201683.414542837
2746,656156730.424185
2834,0.0
2859,0.0
2872,0.0
2910,856851667.5706754
2923,0.0
2984,1521907.5123700698
2,3, 1, 3, 0,15, 0.00,60.00,Tuesday
9,595260099.6753833
45,289899453.59999999
682,270330255.0
1056,984936224.4344235
1092,57702240.0
1165,20122916.15349572
1190,7312955.798744793
1372,73542806.6338364
1509,2012228.935742017
1534,209627568.25755633
2535,58457659.34534559
2688,26201683.414542837
2746,653881403.8890424
2834,0.0
2859,0.0
2872,0.0
2910,853691177.8005872
2923,0.0
2984,1515751.8620958208
2,3, 1, 3, 0,16, 0.00,60.00,Tuesday
9,587965095.2603486
45,289899453.59999999
682,263131362.0
1056,949563801.6532126
1092,11540448.000000002
1165,19564983.91090409
1190,7218393.150427088
1372,73631838.79932882
1509,5208562.613422778
1534,205456318.36261685
2535,62290948.21882945
2688,26201683.414542837
2746,662472447.6531253
2834,0.0
2859,0.0
2872,0.0
2910,864391514.8538838
2923,0.0
2984,1514203.0953786607
2,3, 1, 3, 0,17, 0.00,60.00,Tuesday
9,608158751.0690299
45,289899453.59999999
682,263131362.0
1056,899716949.5326467
1092,11540448.000000002
1165,16955256.511550975
1190,6781204.0107117299
1372,10401868.766527504
1509,7053334.845725846
1534,181605436.79384277
2535,9583215.961568382
2688,26201683.414542837
2746,673931745.7372621
2834,20580000.0
2859,0.0
2872,0.0
2910,877774632.7661193
2923,0.0
2984,1565048.0437754715
2,3, 1, 3, 0,18, 0.00,60.00,Tuesday
9,462787186.4205043
45,289899453.59999999
682,107346114.0
1056,1011882229.209239
1092,11540448.000000002
1165,16747120.17047774
1190,6745743.302187277
1372,20732044.90005501
1509,27263713.22887684
1534,112223368.82586392
2535,9583221.94586235
2688,26201683.414542837
2746,754558377.6181866
2834,30870000.0
2859,0.0
2872,0.0
2910,979609736.3091842
2923,0.0
2984,1724192.1037742499
2,3, 1, 3, 0,19, 0.00,60.00,Tuesday
9,462849237.1205646
45,289899453.59999999
682,107346114.0
1056,1058887478.0902393
1092,11540448.000000002
1165,16720448.218326113
1190,6741199.146013295
1372,20787717.879337744
1509,33782185.72804523
1534,86918885.17912492
2535,18208050.2998452
2688,26201683.414542837
2746,785300575.707112
2834,30870000.0
2859,0.0
2872,0.0
2910,1026559312.2109015
2923,0.0
2984,1790786.9600085268
2,3, 1, 3, 0,20, 0.00,60.00,Tuesday
9,462895576.4338167
45,289899453.59999999
682,107346114.0
1056,1093951972.0884226
1092,11540448.000000002
1165,16735475.914323904
1190,6743860.479341185
1372,31207597.43193113
1509,38593169.45132422
1534,73175168.74594118
2535,23958053.756041904
2688,26201683.414542837
2746,803479011.7934435
2834,30870000.0
2859,0.0
2872,0.0
2910,1051203926.6564915
2923,0.0
2984,1834464.939932724
2,3, 1, 3, 0,21, 0.00,60.00,Tuesday
9,462930722.6008303
45,289899453.59999999
682,107346114.0
1056,1112020114.407395
1092,11540448.000000002
1165,16740498.681309078
1190,6744891.885836456
1372,31173664.558571958
1509,45006608.7231579
1534,65811071.38346611
2535,21083051.334993718
2688,26201683.414542837
2746,816981653.4665194
2834,30870000.0
2859,0.0
2872,0.0
2910,1069306001.8488228
2923,0.0
2984,1868579.7004510984
2,3, 1, 3, 0,22, 0.00,60.00,Tuesday
9,199069210.63594593
45,57110192.35920001
682,105272514.0
1056,32349277.6374947
1092,11540448.000000002
1165,15512819.426361423
1190,5816504.149484013
1372,20808829.6374947
1509,0.0
1534,0.0
2535,21083069.981227518
2688,0.0
2746,0.0
2834,30870000.0
2859,0.0
2872,0.0
2910,0.0
2923,0.0
2984,0.12726184945181052
2,3, 1, 3, 0,23, 0.00,60.00,Tuesday
9,199244834.7395045
45,57110192.35920001
682,105272514.0
1056,32284481.14722926
1092,11540448.000000002
1165,16534412.563617859
1190,5992128.31078722