Program Version,EnergyPlus, Version 9.2.0-921312fa1d, YMD=2020.12.22 18:15
1,5,Environment Title[],Latitude[deg],Longitude[deg],Time Zone[],Elevation[m]
2,8,Day of Simulation[],Month[],Day of Month[],DST Indicator[1=yes 0=no],Hour[],StartMinute[],EndMinute[],DayType
3,5,Cumulative Day of Simulation[],Month[],Day of Month[],DST Indicator[1=yes 0=no],DayType  ! When Daily Meters Requested
4,2,Cumulative Days of Simulation[],Month[]  ! When Monthly Meters Requested
5,1,Cumulative Days of Simulation[] ! When Run Period Meters Requested
6,1,Calendar Year of Simulation[] ! When Annual Meters Requested
9,1,Electricity:Facility [J] !Hourly
4663,1,Heating:Electricity [J] !Hourly
4616,1,Cooling:Electricity [J] !Hourly
45,1,InteriorLights:Electricity [J] !Hourly
4590,1,ExteriorLights:Electricity [J] !Hourly
1207,1,InteriorEquipment:Electricity [J] !Hourly
4347,1,Fans:Electricity [J] !Hourly
4771,1,Pumps:Electricity [J] !Hourly
2001,1,Refrigeration:Electricity [J] !Hourly
1867,1,Gas:Facility [J] !Hourly
4650,1,Heating:Gas [J] !Hourly
1903,1,InteriorEquipment:Gas [J] !Hourly
2183,1,WaterSystems:Gas [J] !Hourly
4719,1,HeatRejection:EnergyTransfer [J] !Hourly
2320,1,Heating:EnergyTransfer [J] !Hourly
2345,1,Cooling:EnergyTransfer [J] !Hourly
4186,1,WaterSystems:EnergyTransfer [J] !Hourly
1976,1,Refrigeration:EnergyTransfer [J] !Hourly
4408,1,HeatingCoils:EnergyTransfer [J] !Hourly
4534,1,CoolingCoils:EnergyTransfer [J] !Hourly
End of Data Dictionary
1,RUNPERIOD 1,  41.98, -87.92,  -6.00, 201.00
2,1, 1, 1, 0, 1, 0.00,60.00,Holiday
9,561134386.9413319
45,156648030.75360007
1207,189143078.4
1867,601719636.0797608
1903,17403336.0
1976,32210960.40303059
2001,12026310.20145806
2183,72000.0
2320,418333842.2674375
2345,22245314.384471947
4186,4298454.809188793
4347,137625628.64374394
4408,437869822.634146
4534,0.0
4590,64537200.0
4616,0.0
4650,584244300.0797608
4663,0.0
4719,0.0
4771,1154138.9425298444
2,1, 1, 1, 0, 2, 0.00,60.00,Holiday
9,561476810.9885005
45,156648030.75360007
1207,189143078.4
1867,574099681.4567201
1903,17403336.0
1976,32031192.874758357
2001,11995980.544771169
2183,72000.0
2320,435868188.3262446
2345,11693531.034387157
4186,4298454.811360946
4347,137923950.0698244
4408,441483707.6826543
4534,0.0
4590,64537200.0
4616,0.0
4650,556624345.4567201
4663,0.0
4719,0.0
4771,1228571.2203048764
2,1, 1, 1, 0, 3, 0.00,60.00,Holiday
9,608033918.9971919
45,156648030.75360007
1207,189143078.4
1867,796930342.3482798
1903,17403336.0
1976,31982402.415556514
2001,11987745.07295473
2183,72000.0
2320,595034671.5413745
2345,14416208.297513776
4186,4298454.811277383
4347,183826635.68265093
4408,594154616.03035
4534,0.0
4590,64537200.0
4616,0.0
4650,779455006.3482798
4663,0.0
4719,0.0
4771,1891229.0879860845
2,1, 1, 1, 0, 4, 0.00,60.00,Holiday
9,563403579.4399414
45,156648030.75360007
1207,189143078.4
1867,611575424.1194176
1903,17403336.0
1976,31948750.955106766
2001,11982071.274595002
2183,72000.0
2320,475599224.30324777
2345,11410515.020848083
4186,4298454.81118988
4347,139703288.92872549
4408,476799532.76982828
4534,0.0
4590,64537200.0
4616,0.0
4650,594100088.1194176
4663,0.0
4719,0.0
4771,1389910.0830208539
2,1, 1, 1, 0, 5, 0.00,60.00,Holiday
9,611641306.1087216
45,156648030.75360007
1207,189143078.4
1867,898308199.7056525
1903,17403336.0
1976,38500336.56101049
2001,13518820.860196544
2183,31008939.877875598
2320,654339710.191015
2345,14250748.148804522
4186,4298454.811159747
4347,185605974.541552
4408,648917692.3406313
4534,0.0
4590,64537200.0
4616,0.0
4650,849895923.8277769
4663,0.0
4719,0.0
4771,2188201.553373019
2,1, 1, 1, 0, 6, 0.00,60.00,Holiday
9,568991425.0382114
45,156648030.75360007
1207,189143078.4
1867,654618790.3417499
1903,17403336.0
1976,38050655.62700343
2001,13415343.386822192
2183,72000.0
2320,516841143.9550749
2345,11277570.71768907
4186,4298454.810032271
4347,143694875.61259646
4408,512172141.5957325
4534,0.0
4590,64537200.0
4616,0.0
4650,637143454.3417499
4663,0.0
4719,0.0
4771,1552896.8851926639
2,1, 1, 1, 0, 7, 0.00,60.00,Holiday
9,611844566.0116572
45,156648030.75360007
1207,189143078.4
1867,916997326.9726646
1903,17403336.0
1976,39231162.841772157
2001,13515932.709224573
2183,72000.0
2320,698247836.7574979
2345,13923884.891284557
4186,4298454.810917435
4347,185605974.541552
4408,688848717.9429873
4534,0.0
4590,64537200.0
4616,0.0
4650,899521990.9726646
4663,0.0
4719,0.0
4771,2394349.6072806555
2,1, 1, 1, 0, 8, 0.00,60.00,Holiday
9,495634856.5397917
45,156648030.75360007
1207,189143078.4
1867,541983070.1678126
1903,17403336.0
1976,37557163.95283468
2001,13052239.832725564
2183,72000.0
2320,409794869.201227
2345,13068058.783654245
4186,4298454.811301637
4347,113974429.96659859
4408,431819037.3242429
4534,0.0
4590,21512400.0
4616,0.0
4650,524507734.1678126
4663,0.0
4719,0.0
4771,1304677.586867454
2,1, 1, 1, 0, 9, 0.00,60.00,Holiday
9,495599107.0229777
45,156648030.75360007
1207,189143078.4
1867,632073878.9555208
1903,17403336.0
1976,37984364.57803813
2001,13125139.312150483
2183,72000.0
2320,436621859.9759007
2345,22127141.268858304
4186,7164091.348345399
4347,135102338.48743583
4408,473811511.6129192
4534,0.0
4590,0.0
4616,0.0
4650,614598542.9555208
4663,0.0
4719,0.0
4771,1580520.0697913804
2,1, 1, 1, 0,10, 0.00,60.00,Holiday
9,406121659.6710044
45,156648030.75360007
1207,189143078.4
1867,387201315.905661
1903,17403336.0
1976,38897601.34450285
2001,13278881.704539204
2183,31037587.981603344
2320,221263432.715078
2345,25537416.071008617
4186,7164091.295985486
4347,46246281.222166169
4408,279328221.76939359
4534,0.0
4590,0.0
4616,0.0
4650,338760391.92405769
4663,0.0
4719,0.0
4771,805387.5906988976
2,1, 1, 1, 0,11, 0.00,60.00,Holiday
9,407916647.6954335
45,156648030.75360007
1207,189143078.4
1867,402809683.73397067
1903,17403336.0
1976,38291380.54488913
2001,13177522.659525156
2183,72000.0
2320,231978747.8002811
2345,58216698.063683498
4186,7164091.351461271
4347,48021487.80375166
4408,290167037.2937351
4534,182.0738838487083
4590,0.0
4616,0.0
4650,385334347.73397067
4663,0.0
4719,0.0
4771,926528.0785565659
2,1, 1, 1, 0,12, 0.00,60.00,Holiday
9,403807915.4533307
45,156648030.75360007
1207,189143078.4
1867,243219068.2634337
1903,17403336.0
1976,41017179.211377
2001,16591557.589582915
2183,72000.0
2320,149741626.64370439
2345,56839596.60763414
4186,7164091.348669872
4347,40908264.64546287
4408,189746563.161392
4534,0.0
4590,0.0
4616,0.0
4650,225743732.2634337
4663,0.0
4719,0.0
4771,516984.0646848151
2,1, 1, 1, 0,13, 0.00,60.00,Holiday
9,394986107.49605259
45,156648030.75360007
1207,189143078.4
1867,328313014.2992686
1903,17403336.0
1976,37187914.87670009
2001,12993415.247328498
2183,31037836.825931804
2320,157846866.77284117
2345,66535200.56194258
4186,7164091.336322275
4347,35566115.79144397
4408,220998973.55926816
4534,0.0
4590,0.0
4616,0.0
4650,279871841.47333678
4663,0.0
4719,0.0
4771,635467.3036800413
2,1, 1, 1, 0,14, 0.00,60.00,Holiday
9,400307733.9671814
45,156648030.75360007
1207,189143078.4
1867,196621936.75488005
1903,17403336.0
1976,38762814.70493531
2001,13255881.092465597
2183,72000.0
2320,112713226.88108325
2345,44697514.09819019
4186,7164091.337540029
4347,40908264.64546287
4408,163445216.31356208
4534,0.0
4590,0.0
4616,0.0
4650,179146600.75488005
4663,0.0
4719,0.0
4771,352479.0756528166
2,1, 1, 1, 0,15, 0.00,60.00,Holiday
9,377320873.0206697
45,156648030.75360007
1207,189143078.4
1867,249400447.31603588
1903,17403336.0
1976,39243187.35523624
2001,13335757.561284937
2183,72000.0
2320,112376972.3238007
2345,54555987.91987029
4186,4298454.811080502
4347,17772727.202432977
4408,194187331.44316919
4534,0.0
4590,0.0
4616,0.0
4650,231925111.31603588
4663,0.0
4719,0.0
4771,421279.10335172645
2,1, 1, 1, 0,16, 0.00,60.00,Holiday
9,373564414.13550338
45,156648030.75360007
1207,189143078.4
1867,202209298.75877355
1903,17403336.0
1976,38658069.72609999
2001,13238006.92754406
2183,72000.0
2320,85083630.83393902
2345,38751725.55832535
4186,4298454.81067554
4347,14218181.76194638
4408,154363375.99274618
4534,0.0
4590,0.0
4616,0.0
4650,184733962.75877355
4663,0.0
4719,0.0
4771,317116.2924128647
2,1, 1, 1, 0,17, 0.00,60.00,Holiday
9,419566618.79494228
45,156648030.75360007
1207,189143078.4
1867,317147114.1304394
1903,17403336.0
1976,34404929.90187645
2001,12529003.823400345
2183,31008990.395469857
2320,123387965.0844623
2345,45919405.19930346
4186,4298454.810206637
4347,17772727.202432977
4408,212015425.8891344
4534,0.0
4590,43024800.0
4616,0.0
4650,268734787.7349696
4663,0.0
4719,0.0
4771,448978.6155088759
2,1, 1, 1, 0,18, 0.00,60.00,Holiday
9,442939493.0909574
45,156648030.75360007
1207,189143078.4
1867,241433275.1416149
1903,17403336.0
1976,34372932.297030929
2001,12523543.60494919
2183,72000.0
2320,110267543.51680142
2345,34934606.44032778
4186,4298454.808513558
4347,19728520.85268405
4408,178682769.08185286
4534,0.0
4590,64537200.0
4616,0.0
4650,223957939.1416149
4663,0.0
4719,0.0
4771,359119.4797241579
2,1, 1, 1, 0,19, 0.00,60.00,Holiday
9,474416178.949947
45,156648030.75360007
1207,189143078.4
1867,338387040.20213618
1903,17403336.0
1976,34344176.93529552
2001,12518636.657773752
2183,72000.0
2320,174181293.11317165
2345,42381551.43499869
4186,4298454.811338639
4347,51035141.12017205
4408,244478480.2676704
4534,0.0
4590,64537200.0
4616,0.0
4650,320911704.20213618
4663,0.0
4719,0.0
4771,534092.0184011575
2,1, 1, 1, 0,20, 0.00,60.00,Holiday
9,464461189.1110429
45,156648030.75360007
1207,189143078.4
1867,277121498.53520837
1903,17403336.0
1976,40913616.080080848
2001,14058362.624265749
2183,72000.0
2320,149531185.5237535
2345,32813841.625620895
4186,4298454.811024672
4347,39645893.328664887
4408,204130123.55495239
4534,0.0
4590,64537200.0
4616,0.0
4650,259646162.53520835
4663,0.0
4719,0.0
4771,428624.00451220749
2,1, 1, 1, 0,21, 0.00,60.00,Holiday
9,474232982.84003868
45,156648030.75360007
1207,189143078.4
1867,371554761.08790495
1903,17403336.0
1976,40487991.38861489
2001,13958928.832155148
2183,72000.0
2320,197140817.073554
2345,41551657.62523729
4186,4298454.810972381
4347,49341963.51828814
4408,270079606.004158
4534,0.0
4590,64537200.0
4616,0.0
4650,354079425.08790495
4663,0.0
4719,0.0
4771,603781.3359952564
2,1, 1, 1, 0,22, 0.00,60.00,Holiday
9,487064933.5894488
45,156648030.75360007
1207,189143078.4
1867,398268272.47618857
1903,17403336.0
1976,37075768.347843367
2001,13157683.570681494
2183,31008627.302391117
2320,217183772.07162086
2345,26560225.745619604
4186,4298454.809702512
4347,62949621.00841355
4408,260464995.77713273
4534,0.0
4590,64537200.0
4616,0.0
4650,349856309.1737975
4663,0.0
4719,0.0
4771,629319.8567536812
2,1, 1, 1, 0,23, 0.00,60.00,Holiday
9,551915228.5020148
45,156648030.75360007
1207,189143078.4
1867,486167187.9936719
1903,17403336.0
1976,32331240.704880235
2001,12046599.651762557
2183,72000.0
2320,317151212.0645637
2345,31857623.36978982
4186,4298454.811343808
4347,128582102.34325974
4408,347536936.78537979
4534,0.0
4590,64537200.0
4616,0.0
4650,468691851.99367198
4663,0.0
4719,0.0
4771,958217.3533923733
2,1, 1, 1, 0,24, 0.00,60.00,Holiday
9,515125781.1615908
45,156648030.75360007
1207,189143078.4
1867,369228781.47320708
1903,17403336.0
1976,36014490.43565107
2001,15612303.036991803
2183,72000.0
2320,254191444.73719464
2345,24130692.584481889
4186,4298454.811350053
4347,88478249.86485566
4408,283759724.7312106
4534,0.0
4590,64537200.0
4616,0.0
4650,351753445.47320708
4663,0.0
4719,0.0
4771,706919.1061432639
2,2, 1, 2, 0, 1, 0.00,60.00,Monday
9,536954365.7504814
45,156648030.75360007
1207,189143078.4
1867,530388825.8865571
1903,17403336.0
1976,32307679.969594554
2001,12042628.338982583
2183,72000.0
2320,352010280.95447209
2345,29067705.581508098
4186,7178020.459316776
4347,113473461.35123861
4408,386268885.0513272
4534,358.7233419245515
4590,64537200.0
4616,0.0
4650,512913489.8865571
4663,0.0
4719,0.0
4771,1109966.9066601718
2,2, 1, 2, 0, 2, 0.00,60.00,Monday
9,532749594.14620086
45,156648030.75360007
1207,189143078.4
1867,450596090.4347311
1903,17403336.0
1976,32295190.40946701
2001,12040521.150468177
2183,31038984.046839727
2320,305616564.92361107
2345,22656505.500020654
4186,7178020.458626659
4347,109558046.50533366
4408,324746486.2567049
4534,178.37208504967664
4590,64537200.0
4616,0.0
4650,402153770.3878913
4663,0.0
4719,0.0
4771,822717.3367989959
2,2, 1, 2, 0, 3, 0.00,60.00,Monday
9,543324128.8507476
45,156648030.75360007
1207,189143078.4
1867,559489988.6439971
1903,17403336.0
1976,32285852.286979297
2001,12038941.89605566
2183,72000.0
2320,374091488.54465618
2345,27911144.807692607
4186,7178020.457613947
4347,119724998.85470544
4408,409976818.7184359
4534,289.12576117112476
4590,64537200.0
4616,0.0
4650,542014652.6439971
4663,0.0
4719,0.0
4771,1231878.946386514
2,2, 1, 2, 0, 4, 0.00,60.00,Monday
9,552762764.4116633
45,156648030.75360007
1207,189143078.4
1867,426792094.3766576
1903,17403336.0
1976,32276338.526352467
2001,12037340.536325783
2183,72000.0
2320,321976633.0937755
2345,21487035.139012964
4186,7178020.460499078
4347,129515979.9246885
4408,332423215.2137285
4534,108.05537996227972
4590,64537200.0
4616,0.0
4650,409316758.3766576
4663,0.0
4719,0.0
4771,881134.7970489643
2,2, 1, 2, 0, 5, 0.00,60.00,Monday
9,551510141.3853147
45,156648030.75360007
1207,189143078.4
1867,594652137.5314839
1903,17403336.0
1976,38875763.41443576
2001,13582161.373830265
2183,31038862.63574742
2320,385168197.5005737
2345,27816896.13511166
4186,7178020.458688675
4347,126337890.83230207
4408,415088430.5737418
4534,0.0
4590,64537200.0
4616,0.0
4650,546209938.8957367
4663,0.0
4719,0.0
4771,1261780.0255822512
2,2, 1, 2, 0, 6, 0.00,60.00,Monday
9,539514244.1007657
45,156648030.75360007
1207,189143078.4
1867,407887675.40625277
1903,17403336.0
1976,38470457.64525852
2001,13486170.700367153
2183,72000.0
2320,306218827.2879686
2345,22507547.120077395
4186,7178020.460656677
4347,114848360.08741093
4408,319153277.23426339
4534,0.0
4590,64537200.0
4616,0.0
4650,390412339.40625277
4663,0.0
4719,0.0
4771,851404.1593875535
2,2, 1, 2, 0, 7, 0.00,60.00,Monday
9,699399428.3013144
45,156648030.75360007
1207,191659478.4
1867,7812203737.224774
1903,17403336.0
1976,35859544.413718659
2001,12933668.906561107
2183,72000.0
2320,2022894497.0832616
2345,34040311.657718
4186,7178020.456775771
4347,260023104.76502938
4408,5988718226.79314
4534,0.0
4590,64537200.0
4616,0.0
4650,7794728401.224774
4663,0.0
4719,0.0
4771,13597945.476123907
2,2, 1, 2, 0, 8, 0.00,60.00,Monday
9,1295131408.8332599
45,795167668.7999998
1207,191659478.4
1867,6963878010.771023
1903,17403336.0
1976,35683690.82118732
2001,14031445.79669278
2183,95163766.16223204
2320,1383217661.1999317
2345,43943398.226420689
4186,77348292.38246453
4347,260023104.76502938
4408,5362819432.300259
4534,0.0
4590,21512400.0
4616,0.0
4650,6851310908.60879
4663,0.0
4719,0.0
4771,12737311.071537948
2,2, 1, 2, 0, 9, 0.00,60.00,Monday
9,1598812846.798787
45,795167668.7999998
1207,524349514.9186813
1867,5748663341.695162
1903,130525020.0
1976,37382002.85963303
2001,14323579.862418646
2183,127889684.62517593
2320,508469973.73665228
2345,138887906.93704785
4186,101303899.34816726
4347,260023104.76502938
4408,4346693062.788614
4534,46831.06863358307
4590,0.0
4616,5269.059648720411
4650,5490248637.069986
4663,0.0
4719,0.0
4771,4943709.393009567
2,2, 1, 2, 0,10, 0.00,60.00,Monday
9,1597915129.1203194
45,795167668.7999998
1207,524349514.9186813
1867,5389407588.626757
1903,130525020.0
1976,38719409.56303921
2001,14576533.605939413
2183,194223394.09183605
2320,280769005.5795579
2345,178447891.70353724
4186,138629319.5370059
4347,260023104.76502938
4408,3964095795.266181
4534,55235.30519576179
4590,0.0
4616,6447.59640881023
4650,5064659174.53492
4663,0.0
4719,0.0
4771,3791859.434260884
2,2, 1, 2, 0,11, 0.00,60.00,Monday
9,1618913362.841343
45,795167668.7999998
1207,545953921.3186814
1867,4934187599.847526
1903,174033360.00000004
1976,39204615.80358422
2001,14730865.123845514
2183,162103131.68540795
2320,141517970.9619598
2345,228980417.20971389
4186,142935914.00258748
4347,260023104.76502938
4408,3598496581.915427
4534,35765.67112358987
4590,0.0
4616,4295.507776006037
4650,4598051108.162118
4663,0.0
4719,0.0
4771,3033507.3260106986
2,2, 1, 2, 0,12, 0.00,60.00,Monday
9,1622179938.7168024
45,795167668.7999998
1207,545953921.3186814
1867,4536980398.787628
1903,174033360.00000004
1976,43566877.84389019
2001,18445611.251203628
2183,195416837.76398776
2320,48616996.96813511
2345,393783402.6401118
4186,155857005.9707458
4347,260023104.76502938
4408,3252115459.9722845
4534,0.0
4590,0.0
4616,0.0
4650,4167530201.02364
4663,0.0
4719,0.0
4771,2589632.5818881609
2,2, 1, 2, 0,13, 0.00,60.00,Monday
9,1618362818.542132
45,795167668.7999998
1207,545953921.3186814
1867,4409840725.006044
1903,174033360.00000004
1976,39520628.899776149
2001,14826758.18901204
2183,228723889.3748263
2320,16714841.994319993
2345,494543208.54214569
4186,165906253.08649815
4347,260023104.76502938
4408,3124312820.0971715
4534,0.0
4590,0.0
4616,0.0
4650,4007083475.631217
4663,0.0
4719,0.0
4771,2391365.469409275
2,2, 1, 2, 0,14, 0.00,60.00,Monday
9,1597011336.7040659
45,795167668.7999998
1207,524349514.9186813
1867,4578465700.049794
1903,87016680.00000002
1976,40407664.73732847
2001,14893797.306143146
2183,196443925.64112515
2320,6578439.77597015
2345,474558753.2308615
4186,171648678.7589625
4347,260023104.76502938
4408,3341169702.2187845
4534,0.0
4590,0.0
4616,0.0
4650,4295005094.4086689
4663,0.0
4719,0.0
4771,2577250.914212249
2,2, 1, 2, 0,15, 0.00,60.00,Monday
9,1597203717.2267137
45,795167668.7999998
1207,524349514.9186813
1867,4802170510.824401
1903,87016680.00000002
1976,40490854.94399151
2001,14851092.591493724
2183,194309540.21664826
2320,4668270.809240678
2345,509659276.9700814
4186,140065244.47518844
4347,260023104.76502938
4408,3523646525.6465218
4534,0.0
4590,0.0
4616,0.0
4650,4520844290.607753
4663,0.0
4719,0.0
4771,2812336.151509789
2,2, 1, 2, 0,16, 0.00,60.00,Monday
9,1568734827.9870828
45,795167668.7999998
1207,496207971.0593406
1867,4358127608.854287
1903,17403336.0
1976,39430131.933809939
2001,14686939.145268856
2183,162254224.48248673
2320,9324155.487949817
2345,682123216.6843957
4186,145807245.64180518
4347,260023104.76502938
4408,3267801247.047423
4534,0.0
4590,0.0
4616,0.0
4650,4178470048.371801
4663,0.0
4719,0.0
4771,2649144.2174442077
2,2, 1, 2, 0,17, 0.00,60.00,Monday
9,1593696164.5535718
45,795167668.7999998
1207,478868630.4
1867,3967529118.4667828
1903,17403336.0
1976,34383796.816944997
2001,13873079.998316953
2183,160808266.94123126
2320,32430083.612944515
2345,892503144.6666576
4186,119342328.56631175
4347,260023104.76502938
4408,2971154277.0526597
4534,0.0
4590,43024800.0
4616,0.0
4650,3789317515.5255515
4663,0.0
4719,0.0
4771,2738880.590225517
2,2, 1, 2, 0,18, 0.00,60.00,Monday
9,1328473007.9722636
45,795167668.7999998
1207,191659478.4
1867,4599418826.817776
1903,17403336.0
1976,34062861.04368003
2001,13780006.020802185
2183,160791623.62692563
2320,103601778.99322428
2345,621734130.5237175
4186,119342522.97236645
4347,260023104.76502938
4408,3450665679.1163995
4534,0.0
4590,64537200.0
4616,0.0
4650,4421223867.190849
4663,0.0
4719,0.0
4771,3305549.986432423
2,2, 1, 2, 0,19, 0.00,60.00,Monday
9,1328434814.2806948
45,795167668.7999998
1207,191659478.4
1867,4535202074.712384
1903,17403336.0
1976,34087181.43473506
2001,13791966.871571143
2183,161509359.5131297
2320,100672685.87752232
2345,619502734.8698838
4186,132262829.59873745
4347,260023104.76502938
4408,3409129974.6284906
4534,0.0
4590,64537200.0
4616,0.0
4650,4356289379.199254
4663,0.0
4719,0.0
4771,3255395.4440943927
2,2, 1, 2, 0,20, 0.00,60.00,Monday
9,1329678275.1468416
45,795167668.7999998
1207,191659478.4
1867,4199845248.025387
1903,17403336.0
1976,40837359.454720597
2001,15415997.053304259
2183,31332196.229751495
2320,91000182.0379384
2345,613380780.5805619
4186,35890060.85029261
4347,260023104.76502938
4408,3245799728.0210287
4534,0.0
4590,64537200.0
4616,0.0
4650,4151109715.795635
4663,0.0
4719,0.0
4771,2874826.1285081405
2,2, 1, 2, 0,21, 0.00,60.00,Monday
9,1329446532.2078262
45,795167668.7999998
1207,191659478.4
1867,4100003221.126131
1903,17403336.0
1976,40489479.74751279
2001,15373042.464176378
2183,62503355.57153082
2320,105714513.86320623
2345,618301800.5152254
4186,31583256.085690839
4347,260023104.76502938
4408,3143567310.43197
4534,0.0
4590,64537200.0
4616,0.0
4650,4020096529.5546004
4663,0.0
4719,0.0
4771,2686037.778620663
2,2, 1, 2, 0,22, 0.00,60.00,Monday
9,423575059.81093236
45,156648030.75360007
1207,189143078.4
1867,48693071.77728457
1903,17403336.0
1976,36535112.87165039
2001,13208705.207249418
2183,31289735.777284564
2320,0.0
2345,0.0
4186,31583266.899532498
4347,0.0
4408,0.0
4534,0.0
4590,64537200.0
4616,0.0
4650,0.0
4663,0.0
4719,0.0
4771,38045.450082843396
2,2, 1, 2, 0,23, 0.00,60.00,Monday
9,426394759.19649496
45,156648030.75360007
1207,189143078.4
1867,52452549.102056387
1903,17403336.0
1976,33867849.46363796
2001,12371350.117239656
2183,31140051.569549569
2320,2186302.6402104839
2345,36123056.41759863
4186,17227248.628751719
4347,3664900.861072912
4408,5596426.898641832
4534,82.56591513465347
4590,64537200.0
4616,0.0
4650,3909161.5325068139
4663,0.0
4719,0.0
4771,30199.064582349583
2,2, 1, 2, 0,24, 0.00,60.00,Monday
9,430293714.3070612
45,156648030.75360007
1207,189143078.4
1867,23055553.644358044
1903,17403336.0
1976,39559362.43481389
2001,16271845.330573988
2183,72000.0
2320,2587392.534068202
2345,32584340.023668998
4186,12920436.421619298
4347,3664900.861072912
4408,7796000.027753612
4534,0.0
4590,64537200.0
4616,0.0
4650,5580217.6443580449
4663,0.0
4719,0.0
4771,28658.9618143063
2,3, 1, 3, 0, 1, 0.00,60.00,Tuesday
9,429004536.2376665
45,156648030.75360007
1207,189143078.4
1867,60460831.46734567
1903,17403336.0
1976,35208688.83858788
2001,12531976.777819839
2183,31037904.727581219
2320,5237740.481341509
2345,50148912.63315001
4186,7191685.502806807
4347,6108168.1017881869
4408,16062695.657777515
4534,0.0
4590,64537200.0
4616,0.0
4650,12019590.739764452
4663,0.0
4719,0.0
4771,36082.204458410415
2,3, 1, 3, 0, 2, 0.00,60.00,Tuesday
9,427756875.9780554
45,156648030.75360007
1207,189143078.4
1867,28293887.253431105
1903,17403336.0
1976,35076099.80364202
2001,12509705.034862159
2183,72000.0
2320,5162396.5113850929
2345,38125138.17357332
4186,7191685.475688917
4347,4886534.481430549
4408,14098234.178107426
4534,0.0
4590,64537200.0
4616,0.0
4650,10818551.253431105
4663,0.0
4719,0.0
4771,32327.308162620782
2,3, 1, 3, 0, 3, 0.00,60.00,Tuesday
9,428996565.80583789
45,156648030.75360007
1207,189143078.4
1867,34178547.49338684
1903,17403336.0
1976,34955187.81835841
2001,12516332.249438018
2183,72000.0
2320,8817428.512813548
2345,46233090.06372281
4186,7191685.516414318
4347,6108168.1017881869
4408,20336959.985040875
4534,0.0
4590,64537200.0
4616,0.0
4650,16703211.493386843
4663,0.0
4719,0.0
4771,43756.301011650896
2,3, 1, 3, 0, 4, 0.00,60.00,Tuesday
9,434253602.32408109
45,156648030.75360007
1207,189143078.4
1867,44409945.832690257
1903,17403336.0
1976,34843010.33864056
2001,12489684.114776534
2183,72000.0
2320,13840456.670018902
2345,88791635.52893386
4186,7191685.515002247
4347,11372933.367686661
4408,30210742.444464048
4534,0.0
4590,64537200.0
4616,0.0
4650,26934609.832690255
4663,0.0
4719,0.0
4771,62675.68801779737
2,3, 1, 3, 0, 5, 0.00,60.00,Tuesday
9,447778023.3246254
45,156648030.75360007
1207,189143078.4
1867,97025580.64803961
1903,17403336.0
1976,67400874.14127919
2001,20103459.77492915
2183,31038805.657371914
2320,25246962.89539931
2345,128968772.8895481
4186,7191685.491058579
4347,17245738.087270034
4408,49675140.12137523
4534,0.0
4590,64537200.0
4616,0.0
4650,48583438.990667689
4663,0.0
4719,0.0
4771,100516.30882612357
2,3, 1, 3, 0, 6, 0.00,60.00,Tuesday
9,443519360.09108409
45,156648030.75360007
1207,189143078.4
1867,70909958.73218596
1903,17403336.0
1976,62091079.83293996
2001,18868716.062354149
2183,72000.0
2320,25146907.72364549
2345,95485365.39527133
4186,7191685.5169843309
4347,14218181.76194638
4408,51689889.67790578
4534,0.0
4590,64537200.0
4616,0.0
4650,53434622.73218596
4663,0.0
4719,0.0
4771,104153.11318342624
2,3, 1, 3, 0, 7, 0.00,60.00,Tuesday
9,701590589.1981529
45,156648030.75360007
1207,191659478.4
1867,7915272015.632473
1903,17403336.0
1976,47582876.6735764
2001,15602180.23699132
2183,72000.0
2320,1635869976.7311037
2345,56943412.323061998
4186,7191685.511383549
4347,260023104.76502938
4408,6049768039.699208
4534,0.0
4590,64537200.0
4616,0.0
4650,7897796679.632473
4663,0.0
4719,0.0
4771,13120595.042532236
2,3, 1, 3, 0, 8, 0.00,60.00,Tuesday
9,1289119337.8484174
45,795167668.7999998
1207,191659478.4
1867,6856750162.673817
1903,17403336.0
1976,36322314.13241796
2001,14139992.1573827
2183,116389727.39890939
2320,767915301.8785927
2345,72162739.61289914
4186,77506112.99377607
4347,260023104.76502938
4408,5288307989.16465
4534,0.0
4590,21512400.0
4616,0.0
4650,6722957099.274908
4663,0.0
4719,0.0
4771,6616693.726005457
2,3, 1, 3, 0, 9, 0.00,60.00,Tuesday
9,1598357944.3653148
45,795167668.7999998
1207,524349514.9186813
1867,6065643900.139115
1903,130525020.0
1976,37886685.429821629
2001,14409055.11313984
2183,129050978.49972312
2320,102474398.15940991
2345,306608239.5746447
4186,101505526.0077413
4347,260023104.76502938
4408,4529305860.341904
4534,0.0
4590,0.0
4616,0.0
4650,5806067901.639393
4663,0.0
4719,0.0
4771,4408600.768464757
2,3, 1, 3, 0,10, 0.00,60.00,Tuesday
9,1598553767.4587496
45,795167668.7999998
1207,524349514.9186813
1867,6076258655.472746
1903,130525020.0
1976,38989175.2798869
2001,14594485.626043305
2183,171378132.52830378
2320,48775240.22080374
2345,374111685.3012846
4186,138901593.9126954
4347,260023104.76502938
4408,4506824082.754714
4534,0.0
4590,0.0
4616,0.0
4650,5774355502.944442
4663,0.0
4719,0.0
4771,4418993.348995821
2,3, 1, 3, 0,11, 0.00,60.00,Tuesday
9,1619984771.553512
45,795167668.7999998
1207,545953921.3186814
1867,5920910657.443451
1903,174033360.00000004
1976,39306248.273080799
2001,14651263.965611322
2183,162088802.66272325
2320,18221118.69210091
2345,436335070.60605689
4186,143217476.98290745
4347,260023104.76502938
4408,4361120233.969412
4534,0.0
4590,0.0
4616,0.0
4650,5584788494.780727
4663,0.0
4719,0.0
4771,4188812.704190177
2,3, 1, 3, 0,12, 0.00,60.00,Tuesday
9,1623436866.1162039
45,795167668.7999998
1207,545953921.3186814
1867,5616830703.391631
1903,174033360.00000004
1976,43550841.38548732
2001,18377802.90801587
2183,198622752.87808065
2320,5583726.982110323
2345,582294872.8188428
4186,156162721.5470463
4347,260023104.76502938
4408,4095596812.6849386
4534,0.0
4590,0.0
4616,0.0
4650,5244174590.51355
4663,0.0
4719,0.0
4771,3914368.3244773957
2,3, 1, 3, 0,13, 0.00,60.00,Tuesday
9,1619497765.1705807
45,795167668.7999998
1207,545953921.3186814
1867,5437986810.13927
1903,174033360.00000004
1976,39424853.44059318
2001,14678258.136211414
2183,225533462.8624953
2320,2257212.355793553
2345,636212243.678136
4186,166231217.5932176
4347,260023104.76502938
4408,3934781162.866699
4534,0.0
4590,0.0
4616,0.0
4650,5038419987.276775
4663,0.0
4719,0.0
4771,3674812.150658909
2,3, 1, 3, 0,14, 0.00,60.00,Tuesday
9,1597918835.3409236
45,795167668.7999998
1207,524349514.9186813
1867,5334682115.129945
1903,87016680.00000002
1976,40193589.12974665
2001,14800986.59390496
2183,196498949.01127313
2320,1497051.8312559617
2345,589418965.5564005
4186,171984553.67812295
4347,260023104.76502938
4408,3943728632.1836369
4534,0.0
4590,0.0
4616,0.0
4650,5051166486.118671
4663,0.0
4719,0.0
4771,3577560.263308227
2,3, 1, 3, 0,15, 0.00,60.00,Tuesday
9,1597849354.515071
45,795167668.7999998
1207,524349514.9186813
1867,5315762333.01602
1903,87016680.00000002
1976,40120167.53464411
2001,14784993.397281774
2183,194352636.55535508
2320,1153681.325710886
2345,606554887.7322263
4186,140340552.63724668
4347,260023104.76502938
4408,3930743748.9393146
4534,0.0
4590,0.0
4616,0.0
4650,5034393016.460665
4663,0.0
4719,0.0
4771,3524072.634078776
2,3, 1, 3, 0,16, 0.00,60.00,Tuesday
9,1569521411.0320733
45,795167668.7999998
1207,496207971.0593406
1867,5061927824.230256
1903,17403336.0
1976,39015044.48330885
2001,14597670.682979338
2183,194683462.30412606
2320,968990.9157141778
2345,752383226.4309173
4186,146094459.9599181
4347,260023104.76502938
4408,3787126854.3426859
4534,0.0
4590,0.0
4616,0.0
4650,4849841025.926129
4663,0.0
4719,0.0
4771,3524995.724724168
2,3, 1, 3, 0,17, 0.00,60.00,Tuesday
9,1594466450.3981462
45,795167668.7999998
1207,478868630.4
1867,4666010512.568869
1903,17403336.0
1976,33880970.75240337
2001,13737635.813212969
2183,128673660.98406315
2320,13278541.126359424
2345,999350363.1523379
4186,119587782.71378574
4347,260023104.76502938
4408,3535671723.129306
4534,0.0
4590,43024800.0
4616,0.0
4650,4519933515.5848059
4663,0.0
4719,0.0
4771,3644610.6199039865
2,3, 1, 3, 0,18, 0.00,60.00,Tuesday
9,1328982250.5411375
45,795167668.7999998
1207,191659478.4
1867,5111288923.368582
1903,17403336.0
1976,33571575.97825169
2001,13684920.393911757
2183,160810150.59133614
2320,44147804.78196777
2345,696060975.2761302
4186,119587883.77487855
4347,260023104.76502938
4408,3860135717.0097305
4534,0.0
4590,64537200.0
4616,0.0
4650,4933075436.777246
4663,0.0
4719,0.0
4771,3909878.1821966154
2,3, 1, 3, 0,19, 0.00,60.00,Tuesday
9,1329053864.935267
45,795167668.7999998
1207,191659478.4
1867,5158620542.288293
1903,17403336.0
1976,33563243.90589407
2001,13683480.230693791
2183,161511433.8976503
2320,54304626.27242188
2345,674185865.6571043
4186,132532746.36021507
4347,260023104.76502938
4408,3890298948.354083
4534,0.0
4590,64537200.0
4616,0.0
4650,4979705772.390642
4663,0.0
4719,0.0
4771,3982932.7395441539
2,3, 1, 3, 0,20, 0.00,60.00,Tuesday
9,1328981709.095602
45,795167668.7999998
1207,191659478.4
1867,5095238194.120303
1903,17403336.0
1976,33623922.53816688
2001,13694007.585068714
2183,62592931.1173848
2320,62842950.97259801
2345,655264653.3665599
4186,35958382.522945459
4347,260023104.76502938
4408,3917677825.841547
4534,0.0
4590,64537200.0
4616,0.0
4650,5015241927.002919
4663,0.0
4719,0.0
4771,3900249.545504306
2,3, 1, 3, 0,21, 0.00,60.00,Tuesday
9,1329006739.2028635
45,795167668.7999998
1207,191659478.4
1867,5110125160.826086
1903,17403336.0