Program Version,EnergyPlus, Version 9.2.0-921312fa1d, YMD=2020.12.22 17:55
1,5,Environment Title[],Latitude[deg],Longitude[deg],Time Zone[],Elevation[m]
2,8,Day of Simulation[],Month[],Day of Month[],DST Indicator[1=yes 0=no],Hour[],StartMinute[],EndMinute[],DayType
3,5,Cumulative Day of Simulation[],Month[],Day of Month[],DST Indicator[1=yes 0=no],DayType  ! When Daily Meters Requested
4,2,Cumulative Days of Simulation[],Month[]  ! When Monthly Meters Requested
5,1,Cumulative Days of Simulation[] ! When Run Period Meters Requested
6,1,Calendar Year of Simulation[] ! When Annual Meters Requested
9,1,Electricity:Facility [J] !Hourly
1083,1,Heating:Electricity [J] !Hourly
1024,1,Cooling:Electricity [J] !Hourly
45,1,InteriorLights:Electricity [J] !Hourly
974,1,ExteriorLights:Electricity [J] !Hourly
182,1,InteriorEquipment:Electricity [J] !Hourly
945,1,Fans:Electricity [J] !Hourly
1125,1,Pumps:Electricity [J] !Hourly
321,1,Gas:Facility [J] !Hourly
1070,1,Heating:Gas [J] !Hourly
345,1,WaterSystems:Gas [J] !Hourly
506,1,Heating:EnergyTransfer [J] !Hourly
531,1,Cooling:EnergyTransfer [J] !Hourly
796,1,WaterSystems:EnergyTransfer [J] !Hourly
1045,1,HeatingCoils:EnergyTransfer [J] !Hourly
1011,1,CoolingCoils:EnergyTransfer [J] !Hourly
End of Data Dictionary
1,RUNPERIOD 1,  41.98, -87.92,  -6.00, 201.00
2,1, 1, 1, 0, 1, 0.00,60.00,Holiday
9,25785164.146236946
45,1792322.3073600005
182,5940057.91392
321,45599530.12955357
345,72000.0
506,42911822.49860524
531,0.0
796,66266.90267790991
945,8095183.924942408
974,9957600.0
1011,0.0
1024,0.0
1045,36422024.10364285
1070,45527530.12955357
1083,0.0
1125,0.000014538461538461542
2,1, 1, 1, 0, 2, 0.00,60.00,Holiday
9,24372158.1809687
45,1792322.3073600005
182,5940057.91392
321,48048465.13900719
345,1671061.345350978
506,41919907.46679319
531,0.0
796,66266.90267790991
945,6682177.959674163
974,9957600.0
1011,0.0
1024,0.0
1045,37101923.03492497
1070,46377403.79365621
1083,0.0
1125,0.000014538461538461542
2,1, 1, 1, 0, 3, 0.00,60.00,Holiday
9,26042702.670887244
45,1792322.3073600005
182,5940057.91392
321,45978396.80407931
345,72000.0
506,43019230.23368369
531,0.0
796,66266.90267790991
945,8352722.449592704
974,9957600.0
1011,0.0
1024,0.0
1045,36725117.44326345
1070,45906396.80407931
1083,0.0
1125,0.000014538461538461542
2,1, 1, 1, 0, 4, 0.00,60.00,Holiday
9,24372158.1809687
45,1792322.3073600005
182,5940057.91392
321,41737854.56089768
345,1671021.3687163345
506,37738949.9781618
531,0.0
796,66266.90267790991
945,6682177.959674163
974,9957600.0
1011,0.0
1024,0.0
1045,32053466.553745077
1070,40066833.19218134
1083,0.0
1125,0.000014538461538461542
2,1, 1, 1, 0, 5, 0.00,60.00,Holiday
9,26042702.670887244
45,1792322.3073600005
182,5940057.91392
321,48989509.94861634
345,1671085.071268143
506,44196615.154740188
531,0.0
796,66266.90267790991
945,8352722.449592704
974,9957600.0
1011,0.0
1024,0.0
1045,37854739.90187856
1070,47318424.8773482
1083,0.0
1125,0.000014538461538461542
2,1, 1, 1, 0, 6, 0.00,60.00,Holiday
9,24372158.1809687
45,1792322.3073600005
182,5940057.91392
321,41013801.93569229
345,72000.0
506,38440629.53097619
531,0.0
796,115967.07968634236
945,6682177.959674163
974,9957600.0
1011,0.0
1024,0.0
1045,32753441.548553833
1070,40941801.93569229
1083,0.0
1125,0.000014538461538461542
2,1, 1, 1, 0, 7, 0.00,60.00,Holiday
9,26042702.670887244
45,1792322.3073600005
182,5940057.91392
321,50111272.64514288
345,1671007.122069908
506,45097245.21316818
531,0.0
796,66266.90267790991
945,8352722.449592704
974,9957600.0
1011,0.0
1024,0.0
1045,38752212.41845839
1070,48440265.52307298
1083,0.0
1125,0.000014538461538461542
2,1, 1, 1, 0, 8, 0.00,60.00,Holiday
9,17733758.1809687
45,1792322.3073600005
182,5940057.91392
321,42950902.669888969
345,1671088.1595757297
506,38668527.63916278
531,0.0
796,66266.90267790991
945,6682177.959674163
974,3319200.0
1011,0.0
1024,0.0
1045,33023851.608250597
1070,41279814.51031324
1083,0.0
1125,0.000014538461538461542
2,1, 1, 1, 0, 9, 0.00,60.00,Holiday
9,16085102.670887245
45,1792322.3073600005
182,5940057.91392
321,49766783.31258282
345,72000.0
506,45289121.85254802
531,0.0
796,66266.90267790991
945,8352722.449592704
974,0.0
1011,0.0
1024,0.0
1045,39755826.65006625
1070,49694783.31258282
1083,0.0
1125,0.000014538461538461542
2,1, 1, 1, 0,10, 0.00,60.00,Holiday
9,14414558.180968704
45,1792322.3073600005
182,5940057.91392
321,36355859.36910311
345,1671096.6793301225
506,33427937.189481994
531,0.0
796,66266.90267790991
945,6682177.959674165
974,0.0
1011,0.0
1024,0.0
1045,27747810.15181839
1070,34684762.689772989
1083,0.0
1125,0.000014538461538461542
2,1, 1, 1, 0,11, 0.00,60.00,Holiday
9,16085102.670887245
45,1792322.3073600005
182,5940057.91392
321,39362128.20355328
345,1671079.6200597133
506,36837022.93038858
531,0.0
796,66266.90267790991
945,8352722.449592706
974,0.0
1011,0.0
1024,0.0
1045,30152838.866794859
1070,37691048.58349357
1083,0.0
1125,0.000014538461538461542
2,1, 1, 1, 0,12, 0.00,60.00,Holiday
9,14223132.247635177
45,1792322.3073600005
182,5940057.91392
321,22895144.42407963
345,72000.0
506,23561226.69744601
531,0.0
796,99400.35401686483
945,6490752.0263406359
974,0.0
1011,0.0
1024,0.0
1045,18258515.53926371
1070,22823144.42407963
1083,0.0
1125,0.000014538461538461542
2,1, 1, 1, 0,13, 0.00,60.00,Holiday
9,15319398.937553138
45,1792322.3073600005
182,5940057.91392
321,27995259.237732155
345,1671112.6523000408
506,26916830.670331275
531,0.0
796,99400.35401686482
945,7587018.716258597
974,0.0
1011,0.0
1024,0.0
1045,21059317.26834569
1070,26324146.585432117
1083,0.0
1125,0.000014538461538461542
2,1, 1, 1, 0,14, 0.00,60.00,Holiday
9,14031706.314301651
45,1792322.3073600005
182,5940057.91392
321,19870108.925694568
345,1671118.0799729992
506,20047749.448254594
531,0.0
796,149100.53102529728
945,6299326.093007109
974,0.0
1011,0.0
1024,0.0
1045,14559192.676577254
1070,18198990.845721567
1083,0.0
1125,0.000014538461538461542
2,1, 1, 1, 0,15, 0.00,60.00,Holiday
9,14170843.337551974
45,1792322.3073600005
182,5940057.91392
321,20812320.685401083
345,72000.0
506,21622136.16723734
531,0.0
796,99400.35401686483
945,6438463.116257435
974,0.0
1011,0.0
1024,0.0
1045,16592256.548320868
1070,20740320.685401083
1083,0.0
1125,0.000014538461538461542
2,1, 1, 1, 0,16, 0.00,60.00,Holiday
9,12883150.714300488
45,1792322.3073600005
182,5940057.91392
321,20259869.306998344
345,1670983.6454274357
506,19319254.34899112
531,0.0
796,66266.90267790991
945,5150770.493005947
974,0.0
1011,0.0
1024,0.0
1045,14871108.529256724
1070,18588885.661570908
1083,0.0
1125,0.000014538461538461542
2,1, 1, 1, 0,17, 0.00,60.00,Holiday
9,20809243.337551975
45,1792322.3073600005
182,5940057.91392
321,28500063.09541634
345,1671070.0099135475
506,26205418.65665572
531,0.0
796,66266.90267790991
945,6438463.116257434
974,6638400.0
1011,0.0
1024,0.0
1045,21463194.468402234
1070,26828993.085502794
1083,0.0
1125,0.000014538461538461542
2,1, 1, 1, 0,18, 0.00,60.00,Holiday
9,23223602.58096754
45,1792322.3073600005
182,5940057.91392
321,19559083.207543665
345,72000.0
506,20398388.253796404
531,0.0
796,66266.90267790991
945,5533622.359673002
974,9957600.0
1011,0.0
1024,0.0
1045,15589666.56603493
1070,19487083.207543665
1083,0.0
1125,0.000014538461538461542
2,1, 1, 1, 0,19, 0.00,60.00,Holiday
9,24894147.07088608
45,1792322.3073600005
182,5940057.91392
321,25733052.514490658
345,1671095.7905499985
506,25069327.110336994
531,0.0
796,66266.90267790991
945,7204166.849591542
974,9957600.0
1011,0.0
1024,0.0
1045,19249565.37915253
1070,24061956.723940657
1083,0.0
1125,0.000014538461538461542
2,1, 1, 1, 0,20, 0.00,60.00,Holiday
9,22840750.714300489
45,1792322.3073600005
182,5940057.91392
321,22041584.563094669
345,1671005.13774576
506,20754458.569236153
531,0.0
796,66266.90267790991
945,5150770.493005947
974,9957600.0
1011,0.0
1024,0.0
1045,16296463.540279126
1070,20370579.425348909
1083,0.0
1125,0.000014538461538461542
2,1, 1, 1, 0,21, 0.00,60.00,Holiday
9,24128443.337551975
45,1792322.3073600005
182,5940057.91392
321,23408035.116491785
345,72000.0
506,23790370.085284547
531,0.0
796,66266.90267790991
945,6438463.116257435
974,9957600.0
1011,0.0
1024,0.0
1045,18668828.093193428
1070,23336035.116491785
1083,0.0
1125,0.000014538461538461542
2,1, 1, 1, 0,22, 0.00,60.00,Holiday
9,23992645.009077576
45,1792322.3073600005
182,5940057.91392
321,21961864.268908137
345,1671120.7218829543
506,21680041.94549011
531,0.0
796,115967.07968634236
945,6299326.093007109
974,9957600.0
1011,22922.6143180648
1024,3338.6947759280635
1045,16232594.837620147
1070,20290743.54702518
1083,0.0
1125,0.000014538461538461542
2,1, 1, 1, 0,23, 0.00,60.00,Holiday
9,24128443.337551975
45,1792322.3073600005
182,5940057.91392
321,25364273.488637076
345,1670988.6241267129
506,24078786.603680977
531,0.0
796,66266.90267790991
945,6438463.116257435
974,9957600.0
1011,0.0
1024,0.0
1045,18954627.891608295
1070,23693284.864510366
1083,0.0
1125,0.000014538461538461542
2,1, 1, 1, 0,24, 0.00,60.00,Holiday
9,23989306.314301649
45,1792322.3073600005
182,5940057.91392
321,21487051.35577806
345,72000.0
506,22673018.404391178
531,0.0
796,66266.90267790991
945,6299326.093007109
974,9957600.0
1011,0.0
1024,0.0
1045,17132041.084622455
1070,21415051.35577806
1083,0.0
1125,0.000014538461538461542
2,2, 1, 2, 0, 1, 0.00,60.00,Monday
9,26491314.50885903
45,1792322.3073600005
182,7920077.218560001
321,28022241.16257026
345,1671077.8708208898
506,26514621.118451574
531,0.0
796,83009.40229773079
945,6821314.982924488
974,9957600.0
1011,0.0
1024,0.0
1045,21080930.633399499
1070,26351163.291749374
1083,0.0
1125,0.000014538461538461542
2,2, 1, 2, 0, 2, 0.00,60.00,Monday
9,25586473.7522746
45,1792322.3073600005
182,7920077.218560001
321,29855059.000667205
345,1671095.9311728138
506,27277576.127366879
531,0.0
796,83009.4022977308
945,5916474.2263400549
974,9957600.0
1011,0.0
1024,0.0
1045,22547170.455595513
1070,28183963.06949439
1083,0.0
1125,0.000014538461538461542
2,2, 1, 2, 0, 3, 0.00,60.00,Monday
9,26491314.50885903
45,1792322.3073600005
182,7920077.218560001
321,26593560.2625658
345,72000.0
506,26629401.41013681
531,0.0
796,83009.40229773079
945,6821314.982924488
974,9957600.0
1011,0.0
1024,0.0
1045,21217248.210052648
1070,26521560.2625658
1083,0.0
1125,0.000014538461538461542
2,2, 1, 2, 0, 4, 0.00,60.00,Monday
9,25586473.7522746
45,1792322.3073600005
182,7920077.218560001
321,29421165.476428108
345,1671074.337113909
506,26947779.696113055
531,0.0
796,83009.40229773079
945,5916474.2263400549
974,9957600.0
1011,0.0
1024,0.0
1045,22200072.91145136
1070,27750091.139314198
1083,0.0
1125,0.000014538461538461542
2,2, 1, 2, 0, 5, 0.00,60.00,Monday
9,26108462.642191978
45,1792322.3073600005
182,7920077.218560001
321,25821565.44674499
345,1671100.2225745917
506,24355366.622723
531,0.0
796,83009.40229773079
945,6438463.116257435
974,9957600.0
1011,0.0
1024,0.0
1045,19320372.17933632
1070,24150465.224170399
1083,0.0
1125,0.000014538461538461542
2,2, 1, 2, 0, 6, 0.00,60.00,Monday
9,26613092.32630049
45,3584644.614720001
182,7920077.218560001
321,19774268.240311184
345,72000.0
506,20249845.68075691
531,0.0
796,132815.04367636925
945,5150770.493005947
974,9957600.0
1011,0.0
1024,0.0
1045,15761814.592248947
1070,19702268.240311184
1083,0.0
1125,0.000014538461538461542
2,2, 1, 2, 0, 7, 0.00,60.00,Monday
9,31485588.77280579
45,3584644.614720001
182,7920077.218560001
321,121697652.23975544
345,1670998.1593544316
506,103194249.09892324
531,0.0
796,116213.16321682312
945,10023266.939511246
974,9957600.0
1011,0.0
1024,0.0
1045,96021323.2643208
1070,120026654.080401
1083,0.0
1125,0.000014538461538461542
2,2, 1, 2, 0, 8, 0.00,60.00,Monday
9,32016478.00224579
45,10753933.844160002
182,7920077.218560001
321,102249856.98776658
345,1671091.2930851249
506,65091683.70343258
531,0.0
796,315435.72873137696
945,10023266.939511246
974,3319200.0
1011,0.0
1024,0.0
1045,80463012.55574516
1070,100578765.69468145
1083,0.0
1125,0.000014538461538461542
2,2, 1, 2, 0, 9, 0.00,60.00,Monday
9,60105242.21376578
45,32261801.53248001
182,17820173.74176
321,61603750.33102551
345,1671170.6043080323
506,32982945.858280954
531,0.0
796,581065.8160841153
945,10023266.939511246
974,0.0
1011,0.0
1024,0.0
1045,47946063.78137398
1070,59932579.72671748
1083,0.0
1125,0.000014538461538461542
2,2, 1, 2, 0,10, 0.00,60.00,Monday
9,60105242.21376578
45,32261801.53248001
182,17820173.74176
321,46301899.68808405
345,1671302.491009143
506,21470709.81361613
531,25652.390998277402
796,630871.4574627539
945,10023266.939511246
974,0.0
1011,0.0
1024,0.0
1045,35704477.75765993
1070,44630597.197074908
1083,0.0
1125,0.000014538461538461542
2,2, 1, 2, 0,11, 0.00,60.00,Monday
9,60105242.21376578
45,32261801.53248001
182,17820173.74176
321,36616438.96331792
345,1671325.712176968
506,15657611.415459468
531,913919.4101041346
796,647473.3379223
945,10023266.939511246
974,0.0
1011,0.0
1024,0.0
1045,27956090.600912766
1070,34945113.25114095
1083,0.0
1125,0.000014538461538461542
2,2, 1, 2, 0,12, 0.00,60.00,Monday
9,60105242.21376578
45,32261801.53248001
182,17820173.74176
321,29582503.726067418
345,1671450.9687673788
506,11619960.602281526
531,1967691.8350803958
796,780288.3815986691
945,10023266.939511246
974,0.0
1011,0.0
1024,0.0
1045,22328842.205840026
1070,27911052.757300039
1083,0.0
1125,0.000014538461538461542
2,2, 1, 2, 0,13, 0.00,60.00,Monday
9,58125222.90912577
45,32261801.53248001
182,15840154.437120002
321,31465821.458052096
345,3270920.40485746
506,11490732.290207727
531,1616736.7217341832
796,946307.1861941306
945,10023266.939511246
974,0.0
1011,0.0
1024,0.0
1045,22555920.84255571
1070,28194901.053194636
1083,0.0
1125,0.000014538461538461542
2,2, 1, 2, 0,14, 0.00,60.00,Monday
9,60105242.21376578
45,32261801.53248001
182,17820173.74176
321,24042095.839209234
345,1671299.9693477902
506,7342970.207732014
531,3315596.7320211629
796,896501.5448154926
945,10023266.939511246
974,0.0
1011,0.0
1024,0.0
1045,17896636.695889158
1070,22370795.869861444
1083,0.0
1125,0.000014538461538461542
2,2, 1, 2, 0,15, 0.00,60.00,Monday
9,60105242.21376578
45,32261801.53248001
182,17820173.74176
321,24017788.502907859
345,1671144.6709599666
506,6563074.829242273
531,3812199.979164804
796,564463.9356245694
945,10023266.939511246
974,0.0
1011,0.0
1024,0.0
1045,17877315.06555831
1070,22346643.831947894
1083,0.0
1125,0.000014538461538461542
2,2, 1, 2, 0,16, 0.00,60.00,Monday
9,60105242.21376578
45,32261801.53248001
182,17820173.74176
321,21464106.407074885
345,1671185.359416617
506,5483907.24560102
531,4247664.461663734
796,547862.0551650231
945,10023266.939511246
974,0.0
1011,0.0
1024,0.0
1045,15834336.838126619
1070,19792921.047658273
1083,0.0
1125,0.000014538461538461542
2,2, 1, 2, 0,17, 0.00,60.00,Monday
9,66743642.21376578
45,32261801.53248001
182,17820173.74176
321,19286800.61100456
345,1671382.5144352697
506,4768270.949140184
531,4697377.359551309
796,730482.7402200309
945,10023266.939511246
974,6638400.0
1011,0.0
1024,0.0
1045,14092334.477255438
1070,17615418.096569294
1083,0.0
1125,0.000014538461538461542
2,2, 1, 2, 0,18, 0.00,60.00,Monday
9,47804186.5363258
45,17923223.073600007
182,9900096.523200002
321,35963682.55048648
345,1671158.6726922789
506,13969130.045774773
531,1368016.6190274987
796,431648.89194820009
945,10023266.939511246
974,9957600.0
1011,0.0
1024,0.0
1045,27434019.102235363
1070,34292523.877794209
1083,0.0
1125,0.000014538461538461542
2,2, 1, 2, 0,19, 0.00,60.00,Monday
9,38654878.00224579
45,10753933.844160002
182,7920077.218560001
321,43115867.57159031
345,1671198.426991505
506,18577221.438577866
531,23806.89373922032
796,348639.4896504692
945,10023266.939511246
974,9957600.0
1011,0.0
1024,0.0
1045,33155735.315679045
1070,41444669.144598808
1083,0.0
1125,0.000014538461538461542
2,2, 1, 2, 0,20, 0.00,60.00,Monday
9,38654878.00224579
45,10753933.844160002
182,7920077.218560001
321,43118211.85091477
345,1671127.1626485983
506,19487010.188905874
531,0.0
796,249028.2068931923
945,10023266.939511246
974,9957600.0
1011,0.0
1024,0.0
1045,33157667.750612935
1070,41447084.68826617
1083,0.0
1125,0.000014538461538461542
2,2, 1, 2, 0,21, 0.00,60.00,Monday
9,35070233.38752579
45,7169289.229440002
182,7920077.218560001
321,44323028.87623161
345,1671085.9050434107
506,21103840.065005498
531,0.0
796,282231.9678122847
945,10023266.939511246
974,9957600.0
1011,0.0
1024,0.0
1045,34121554.376950558
1070,42651942.971188198
1083,0.0
1125,0.000014538461538461542
2,2, 1, 2, 0,22, 0.00,60.00,Monday
9,35070233.38752579
45,7169289.229440002
182,7920077.218560001
321,42390222.524284679
345,72000.0
506,21468232.39172734
531,0.0
796,132815.04367636925
945,10023266.939511246
974,9957600.0
1011,0.0
1024,0.0
1045,33854578.01942775
1070,42318222.524284679
1083,0.0
1125,0.000014538461538461542
2,2, 1, 2, 0,23, 0.00,60.00,Monday
9,21462321.833294546
45,3584644.614720001
182,7920077.218560001
321,1671089.8691165273
345,1671089.8691165273
506,0.0
531,0.0
796,83009.4022977308
945,0.0
974,9957600.0
1011,0.0
1024,0.0
1045,0.0
1070,0.0
1083,0.0
1125,0.000014538461538461542
2,2, 1, 2, 0,24, 0.00,60.00,Monday
9,19669999.525934545
45,1792322.3073600005
182,7920077.218560001
321,1671064.854409995
345,1671064.854409995
506,0.0
531,0.0
796,83009.4022977308
945,0.0
974,9957600.0
1011,0.0
1024,0.0
1045,0.0
1070,0.0
1083,0.0
1125,0.000014538461538461542
2,3, 1, 3, 0, 1, 0.00,60.00,Tuesday
9,20241108.623250035
45,1792322.3073600005
182,7920077.218560001
321,227132.14849400125
345,72000.0
506,550314.5045247078
531,0.0
796,83181.84411438593
945,571109.0973154898
974,9957600.0
1011,0.0
1024,0.0
1045,124105.71879520099
1070,155132.14849400125
1083,0.0
1125,0.000014538461538461542
2,3, 1, 3, 0, 2, 0.00,60.00,Tuesday
9,23958712.064383985
45,1792322.3073600005
182,7920077.218560001
321,2644967.824323968
345,1671057.3074858259
506,4579235.555197537
531,0.0
796,83181.84411438593
945,4288712.538449443
974,9957600.0
1011,0.0
1024,0.0
1045,779128.4134705138
1070,973910.5168381421
1083,0.0
1125,0.000014538461538461542
2,3, 1, 3, 0, 3, 0.00,60.00,Tuesday
9,24820770.01894049
45,1792322.3073600005
182,7920077.218560001
321,4881539.35690359
345,1670780.6164635618
506,7211305.927146453
531,0.0
796,83181.84411438593
945,5150770.493005948
974,9957600.0
1011,0.0
1024,0.0
1045,2568606.992352023
1070,3210758.740440028
1083,0.0
1125,0.000014538461538461542
2,3, 1, 3, 0, 4, 0.00,60.00,Tuesday
9,26108462.642191978
45,1792322.3073600005
182,7920077.218560001
321,5302111.907175036
345,72000.0
506,9691137.650532134
531,0.0
796,83181.84411438593
945,6438463.116257434
974,9957600.0
1011,0.0
1024,0.0
1045,4184089.5257400285
1070,5230111.907175036
1083,0.0
1125,0.000014538461538461542
2,3, 1, 3, 0, 5, 0.00,60.00,Tuesday
9,24820770.01894049
45,1792322.3073600005
182,7920077.218560001
321,9562956.093320504
345,1671092.4700766602
506,10758081.46364178
531,0.0
796,83181.84411438593
945,5150770.493005948
974,9957600.0
1011,0.0
1024,0.0
1045,6313490.898595075
1070,7891863.623243842
1083,0.0
1125,0.000014538461538461542
2,3, 1, 3, 0, 6, 0.00,60.00,Tuesday
9,27900784.949551979
45,3584644.614720001
182,7920077.218560001
321,13834816.939415398
345,1671085.7924699183
506,15226049.43324887
531,0.0
796,133090.95058301744
945,6438463.116257434
974,9957600.0
1011,0.0
1024,0.0
1045,9730984.917556383
1070,12163731.14694548
1083,0.0
1125,0.000014538461538461542
2,3, 1, 3, 0, 7, 0.00,60.00,Tuesday
9,31485588.77280579
45,3584644.614720001
182,7920077.218560001
321,82868325.94082839
345,72000.0
506,74526903.32119535
531,0.0
796,116454.58176014028
945,10023266.939511246
974,9957600.0
1011,0.0
1024,0.0
1045,66237060.75266272
1070,82796325.94082839
1083,0.0
1125,0.000014538461538461542
2,3, 1, 3, 0, 8, 0.00,60.00,Tuesday
9,32016478.00224579
45,10753933.844160002
182,7920077.218560001
321,84062563.7001226
345,1671088.5937972579
506,47373667.176812019
531,0.0
796,316091.00763466648
945,10023266.939511246
974,3319200.0
1011,0.0
1024,0.0
1045,65913180.08506027
1070,82391475.10632535
1083,0.0
1125,0.000014538461538461542
2,3, 1, 3, 0, 9, 0.00,60.00,Tuesday
9,60105242.21376578
45,32261801.53248001
182,17820173.74176
321,51060973.71893843
345,1671255.0160829975
506,21393121.493467839
531,1173565.5425866966
796,582272.9088007013
945,10023266.939511246
974,0.0
1011,0.0
1024,0.0
1045,39511774.96228436
1070,49389718.70285544
1083,0.0
1125,0.000014538461538461542
2,3, 1, 3, 0,10, 0.00,60.00,Tuesday
9,60105242.21376578
45,32261801.53248001
182,17820173.74176
321,41686855.71316588
345,1671357.052761263
506,14887640.480081013
531,2703415.0194987419
796,632182.0152693329
945,10023266.939511246
974,0.0
1011,0.0
1024,0.0
1045,32012398.928323695
1070,40015498.660404618
1083,0.0
1125,0.000014538461538461542
2,3, 1, 3, 0,11, 0.00,60.00,Tuesday
9,60105242.21376578
45,32261801.53248001
182,17820173.74176
321,37269351.10485774
345,3270466.2015710475
506,11126952.959476032
531,3414464.758708314
796,648818.3840922102
945,10023266.939511246
974,0.0
1011,0.0
1024,0.0
1045,27199107.92262936
1070,33998884.9032867
1083,0.0
1125,0.000014538461538461542
2,3, 1, 3, 0,12, 0.00,60.00,Tuesday
9,60105242.21376578
45,32261801.53248001
182,17820173.74176
321,31126869.69322816
345,1671259.1910881284
506,8630321.235547886
531,3900976.87104292
796,781909.3346752273
945,10023266.939511246
974,0.0
1011,0.0
1024,0.0
1045,23564488.401712028
1070,29455610.50214003
1083,0.0
1125,0.000014538461538461542
2,3, 1, 3, 0,13, 0.00,60.00,Tuesday
9,58125222.90912577
45,32261801.53248001
182,15840154.437120002
321,32324252.522613396
345,1671441.650119576
506,9512437.143708494
531,3190752.9019674879
796,948273.0229039993
945,10023266.939511246
974,0.0
1011,0.0
1024,0.0
1045,24522248.697995057
1070,30652810.872493823
1083,0.0
1125,0.000014538461538461542
2,3, 1, 3, 0,14, 0.00,60.00,Tuesday
9,60105242.21376578
45,32261801.53248001
182,17820173.74176
321,25045875.151922127
345,1671295.924452829
506,5410605.945565783
531,4667104.279229578
796,898363.9164353678
945,10023266.939511246
974,0.0
1011,0.0
1024,0.0
1045,18699663.38197544
1070,23374579.2274693
1083,0.0
1125,0.000014538461538461542
2,3, 1, 3, 0,15, 0.00,60.00,Tuesday
9,60105242.21376578
45,32261801.53248001
182,17820173.74176
321,23431267.27576887
345,1671254.3071266865
506,4475506.690335359
531,5024018.50723772
796,565636.5399778242
945,10023266.939511246
974,0.0
1011,0.0
1024,0.0
1045,17408010.374913746
1070,21760012.96864218
1083,0.0
1125,0.000014538461538461542
2,3, 1, 3, 0,16, 0.00,60.00,Tuesday
9,60105242.21376578
45,32261801.53248001
182,17820173.74176
321,22476963.53933994
345,1671288.6744912286
506,3999695.105397322
531,5311785.015438427
796,549000.1711549469
945,10023266.939511246
974,0.0
1011,0.0
1024,0.0
1045,16644539.891878974
1070,20805674.864848716
1083,0.0
1125,0.000014538461538461542
2,3, 1, 3, 0,17, 0.00,60.00,Tuesday
9,66743642.21376578
45,32261801.53248001
182,17820173.74176
321,23980662.510415496
345,3270822.2776553488
506,4201657.924462756
531,5592762.1735852709
796,732000.2282065961
945,10023266.939511246
974,6638400.0
1011,0.0
1024,0.0
1045,16567872.186208116
1070,20709840.232760148
1083,0.0
1125,0.000014538461538461542
2,3, 1, 3, 0,18, 0.00,60.00,Tuesday
9,47804186.5363258
45,17923223.073600007
182,9900096.523200002
321,38546552.141349058
345,1671230.9822016864
506,13547614.94360321
531,2006413.4401365512
796,432545.58939480668
945,10023266.939511246
974,9957600.0
1011,0.0
1024,0.0
1045,29500256.927317896
1070,36875321.15914737
1083,0.0
1125,0.000014538461538461542
2,3, 1, 3, 0,19, 0.00,60.00,Tuesday
9,38654878.00224579
45,10753933.844160002
182,7920077.218560001
321,45468842.16719936
345,72000.0
506,18647627.466825159
531,283542.2059467212
796,349363.74528042078
945,10023266.939511246
974,9957600.0
1011,0.0
1024,0.0
1045,36317473.733759488
1070,45396842.16719936
1083,0.0
1125,0.000014538461538461542
2,3, 1, 3, 0,20, 0.00,60.00,Tuesday
9,38654878.00224579
45,10753933.844160002
182,7920077.218560001
321,49560192.610407669
345,1671174.964007289
506,20353610.67829672
531,0.0
796,249545.53234315775
945,10023266.939511246
974,9957600.0
1011,0.0
1024,0.0
1045,38311214.117120299
1070,47889017.64640038
1083,0.0
1125,0.000014538461538461542
2,3, 1, 3, 0,21, 0.00,60.00,Tuesday
9,35070233.38752579
45,7169289.229440002
182,7920077.218560001
321,52581711.32782289
345,1671117.6894282846
506,22763966.262049397
531,0.0
796,282818.2699889121
945,10023266.939511246
974,9957600.0
1011,0.0
1024,0.0
1045,40728474.910715688
1070,50910593.6383946
1083,0.0
1125,0.000014538461538461542
2,3, 1, 3, 0,22, 0.00,60.00,Tuesday
9,35070233.38752579
45,7169289.229440002
182,7920077.218560001
321,54284280.520803797
345,1671078.5823475132
506,24123159.984861029
531,0.0
796,133090.95058301747
945,10023266.939511246
974,9957600.0
1011,0.0
1024,0.0
1045,42090561.55076502
1070,52613201.93845628
1083,0.0
1125,0.000014538461538461542
2,3, 1, 3, 0,23, 0.00,60.00,Tuesday
9,21462321.833294546
45,3584644.614720001
182,7920077.218560001
321,72000.0
345,72000.0
506,0.0
531,0.0
796,83181.84411438593
945,0.0
974,9957600.0
1011,0.0
1024,0.0
1045,0.0
1070,0.0
1083,0.0
1125,0.000014538461538461542
2,3, 1, 3, 0,24, 0.00,60.00,Tuesday
9,20241108.623250035
45,1792322.3073600005
182,7920077.218560001
321,1985437.9897758628
345,1671064.7895507373
506,664721.2837430287
531,0.0
796,83181.84411438593
945,571109.0973154898
974,9957600.0
1011,0.0
1024,0.0
1045,251498.5601801005
1070,314373.20022512556
1083,0.0
1125,0.000014538461538461542
2,4, 1, 4, 0, 1, 0.00,60.00,Wednesday
9,25038797.974556857
45,1792322.3073600005
182,7920077.218560001
321,5664025.164052616
345,1671070.4291641939
506,8081813.895838594
531,0.0
796,83350.90273034208
945,5368798.448622314
974,9957600.0
1011,0.0
1024,0.0
1045,3194363.787910738
1070,3992954.734888422
1083,0.0
1125,0.000014538461538461542
2,4, 1, 4, 0, 2, 0.00,60.00,Wednesday
9,25537353.544876487
45,1792322.3073600005
182,7920077.218560001
321,8833416.138823972
345,72000.0
506,12196760.14132728
531,0.0
796,83350.90273034208
945,5867354.018941944
974,9957600.0
1011,0.0
1024,0.0
1045,7009132.9110591779
1070,8761416.138823972
1083,0.0
1125,0.000014538461538461542
2,4, 1, 4, 0, 3, 0.00,60.00,Wednesday
9,25391879.116255978
45,1792322.3073600005
182,7920077.218560001
321,12842661.9915655
345,1671097.383558259
506,14161815.082940935
531,0.0
796,83350.90273034208
945,5721879.590321437
974,9957600.0
1011,0.0
1024,0.0
1045,8937251.686405793
1070,11171564.608007241
1083,0.0
1125,0.000014538461538461542
2,4, 1, 4, 0, 4, 0.00,60.00,Wednesday
9,25537353.544876487
45,1792322.3073600005
182,7920077.218560001
321,16931472.31822823
345,1671106.3980782419
506,17259862.916577709
531,0.0
796,83350.90273034208
945,5867354.018941944
974,9957600.0
1011,0.0
1024,0.0
1045,12208292.736119992
1070,15260365.920149986
1083,0.0
1125,0.000014538461538461542
2,4, 1, 4, 0, 5, 0.00,60.00,Wednesday
9,25391879.116255978
45,1792322.3073600005
182,7920077.218560001
321,16634107.857855764
345,72000.0
506,18388560.30331965
531,0.0
796,83350.90273034208
945,5721879.590321437
974,9957600.0
1011,0.0
1024,0.0
1045,13249686.28628461
1070,16562107.857855764
1083,0.0
1125,0.000014538461538461542
2,4, 1, 4, 0, 6, 0.00,60.00,Wednesday
9,27329675.852236488
45,3584644.614720001
182,7920077.218560001
321,20856049.08839401
345,1671128.9495245773
506,20265333.66534839
531,0.0
796,133361.44436854727
945,5867354.018941944
974,9957600.0
1011,0.0
1024,0.0
1045,15347936.111095548
1070,19184920.13886943
1083,0.0
1125,0.000014538461538461542
2,4, 1, 4, 0, 7, 0.00,60.00,Wednesday
9,31485588.77280579
45,3584644.614720001
182,7920077.218560001
321,87855027.50813374
345,1671095.8283381989
506,77212616.3516597
531,0.0
796,116691.26382247891
945,10023266.939511246
974,9957600.0
1011,0.0
1024,0.0
1045,68947145.34383644
1070,86183931.67979555
1083,0.0
1125,0.000014538461538461542
2,4, 1, 4, 0, 8, 0.00,60.00,Wednesday
9,32016478.00224579
45,10753933.844160002
182,7920077.218560001
321,85439403.15294443
345,1671104.7490653627
506,49040591.57915613
531,0.0
796,316733.4303752998
945,10023266.939511246
974,3319200.0
1011,0.0
1024,0.0
1045,67014638.723103258
1070,83768298.40387906
1083,0.0
1125,0.000014538461538461542
2,4, 1, 4, 0, 9, 0.00,60.00,Wednesday
9,60105242.21376578
45,32261801.53248001
182,17820173.74176
321,49835834.06140182
345,1671226.9187568858
506,21912313.587287845
531,943456.9416134032
796,583456.3191123944
945,10023266.939511246
974,0.0
1011,0.0
1024,0.0
1045,38531685.714115958
1070,48164607.142644938
1083,0.0
1125,0.000014538461538461542
2,4, 1, 4, 0,10, 0.00,60.00,Wednesday
9,60105242.21376578
45,32261801.53248001
182,17820173.74176
321,38278221.39063618
345,1671361.273308372
506,14900762.951734256
531,2541261.269520197
796,633466.8607505997
945,10023266.939511246
974,0.0
1011,0.0
1024,0.0
1045,29285488.09386225
1070,36606860.11732781
1083,0.0
1125,0.000014538461538461542
2,4, 1, 4, 0,11, 0.00,60.00,Wednesday
9,60105242.21376578
45,32261801.53248001
182,17820173.74176
321,32159855.132247986
345,1671388.581226408
506,10993687.826987703
531,3287975.8882801386
796,650137.041296668
945,10023266.939511246
974,0.0
1011,0.0
1024,0.0
1045,24390773.240817265
1070,30488466.551021577
1083,0.0
1125,0.000014538461538461542
2,4, 1, 4, 0,12, 0.00,60.00,Wednesday
9,60105242.21376578
45,32261801.53248001
182,17820173.74176
321,27698590.7978129
345,1671305.4467961237
506,8354645.148559443
531,3813914.1669933286
796,783498.4856652154
945,10023266.939511246
974,0.0
1011,0.0
1024,0.0
1045,20821828.280813427
1070,26027285.351016776
1083,0.0
1125,0.000014538461538461542
2,4, 1, 4, 0,13, 0.00,60.00,Wednesday
9,58125222.90912577
45,32261801.53248001
182,15840154.437120002
321,30223692.97807759
345,3270763.3537637146
506,9035056.329726007
531,3119221.582056486
796,950200.2911258994
945,10023266.939511246
974,0.0
1011,0.0
1024,0.0
1045,21562343.699451105
1070,26952929.624313877
1083,0.0
1125,0.000014538461538461542
2,4, 1, 4, 0,14, 0.00,60.00,Wednesday
9,60105242.21376578
45,32261801.53248001
182,17820173.74176
321,21338821.773042635
345,1671423.162051931
506,4941927.146226
531,4609944.53801442
796,900189.7494876946
945,10023266.939511246
974,0.0
1011,0.0
1024,0.0
1045,15733918.888792566
1070,19667398.610990704
1083,0.0
1125,0.000014538461538461542