Program Version,EnergyPlus, Version 9.2.0-921312fa1d, YMD=2020.12.22 18:12
1,5,Environment Title[],Latitude[deg],Longitude[deg],Time Zone[],Elevation[m]
2,8,Day of Simulation[],Month[],Day of Month[],DST Indicator[1=yes 0=no],Hour[],StartMinute[],EndMinute[],DayType
3,5,Cumulative Day of Simulation[],Month[],Day of Month[],DST Indicator[1=yes 0=no],DayType  ! When Daily Meters Requested
4,2,Cumulative Days of Simulation[],Month[]  ! When Monthly Meters Requested
5,1,Cumulative Days of Simulation[] ! When Run Period Meters Requested
6,1,Calendar Year of Simulation[] ! When Annual Meters Requested
9,1,Electricity:Facility [J] !Hourly
4663,1,Heating:Electricity [J] !Hourly
4616,1,Cooling:Electricity [J] !Hourly
45,1,InteriorLights:Electricity [J] !Hourly
4590,1,ExteriorLights:Electricity [J] !Hourly
1207,1,InteriorEquipment:Electricity [J] !Hourly
4347,1,Fans:Electricity [J] !Hourly
4771,1,Pumps:Electricity [J] !Hourly
2001,1,Refrigeration:Electricity [J] !Hourly
1867,1,Gas:Facility [J] !Hourly
4650,1,Heating:Gas [J] !Hourly
1903,1,InteriorEquipment:Gas [J] !Hourly
2183,1,WaterSystems:Gas [J] !Hourly
4719,1,HeatRejection:EnergyTransfer [J] !Hourly
2320,1,Heating:EnergyTransfer [J] !Hourly
2345,1,Cooling:EnergyTransfer [J] !Hourly
4186,1,WaterSystems:EnergyTransfer [J] !Hourly
1976,1,Refrigeration:EnergyTransfer [J] !Hourly
4408,1,HeatingCoils:EnergyTransfer [J] !Hourly
4534,1,CoolingCoils:EnergyTransfer [J] !Hourly
End of Data Dictionary
1,RUNPERIOD 1,  41.98, -87.92,  -6.00, 201.00
2,1, 1, 1, 0, 1, 0.00,60.00,Holiday
9,632675755.743779
45,189733389.44400008
1207,189143078.4
1867,1525627494.951042
1903,17403336.0
1976,31197750.737111216
2001,11854664.334057847
2183,72000.0
2320,909514515.7369566
2345,8224293.507786091
4186,4298454.810337604
4347,159997955.36572439
4408,1041236750.1839355
4534,0.0
4590,78746400.0
4616,0.0
4650,1508152158.951042
4663,0.0
4719,0.0
4771,3200268.1999966895
2,1, 1, 1, 0, 2, 0.00,60.00,Holiday
9,621134480.4970585
45,189733389.44400008
1207,189143078.4
1867,1462925809.7474173
1903,17403336.0
1976,30762348.519987763
2001,11780995.822031094
2183,72000.0
2320,929821183.7662034
2345,6701962.232438294
4186,4298454.810699973
4347,148087816.87041439
4408,1061650189.2169525
4534,0.0
4590,78746400.0
4616,0.0
4650,1445450473.7474173
4663,0.0
4719,0.0
4771,3642799.9606129236
2,1, 1, 1, 0, 3, 0.00,60.00,Holiday
9,645127240.7009616
45,189733389.44400008
1207,189143078.4
1867,1986173377.2591058
1903,17403336.0
1976,30556295.169144699
2001,11745811.834363614
2183,72000.0
2320,1239985095.9532824
2345,8366925.631789681
4186,4298454.8112454139
4347,170141321.02350185
4408,1406640358.8153158
4534,0.0
4590,78746400.0
4616,0.0
4650,1968698041.259106
4663,0.0
4719,0.0
4771,5617239.9990962189
2,1, 1, 1, 0, 4, 0.00,60.00,Holiday
9,641101213.2570024
45,189733389.44400008
1207,189143078.4
1867,1481482656.5411282
1903,17403336.0
1976,30469557.923800034
2001,11731029.608302826
2183,72000.0
2320,963086069.9693618
2345,6630576.367844377
4186,4298454.811161852
4347,168045750.28976924
4408,1079844136.6356245
4534,0.0
4590,78746400.0
4616,0.0
4650,1464007320.5411282
4663,0.0
4719,0.0
4771,3701565.5149303807
2,1, 1, 1, 0, 5, 0.00,60.00,Holiday
9,670792768.4766004
45,189733389.44400008
1207,189143078.4
1867,2052331998.0695196
1903,17403336.0
1976,36982610.73355373
2001,13261172.07482414
2183,31802209.772807965
2320,1282941212.7818785
2345,8292014.870320872
4186,4298454.811159729
4347,194090841.12672765
4408,1431244918.9870005
4534,0.0
4590,78746400.0
4616,0.0
4650,2003126452.2967115
4663,0.0
4719,0.0
4771,5817887.431048495
2,1, 1, 1, 0, 6, 0.00,60.00,Holiday
9,610730695.7296462
45,189733389.44400008
1207,189143078.4
1867,1492806249.5556865
1903,17403336.0
1976,36523927.2567452
2001,13156143.714273433
2183,72000.0
2320,962709703.0211353
2345,6572712.865258843
4186,4298454.810032281
4347,136113056.81880147
4408,1086762221.9583688
4534,0.0
4590,78746400.0
4616,0.0
4650,1475330913.5556865
4663,0.0
4719,0.0
4771,3838627.3525712147
2,1, 1, 1, 0, 7, 0.00,60.00,Holiday
9,671682762.5563229
45,189733389.44400008
1207,189143078.4
1867,2081450153.7409032
1903,17403336.0
1976,37619947.10351746
2001,13241972.141787027
2183,72000.0
2320,1326027002.2538889
2345,8226728.10198793
4186,4298454.8109174449
4347,194764173.29765309
4408,1476197351.9630798
4534,547.1374241862019
4590,78746400.0
4616,0.0
4650,2063974817.7409032
4663,0.0
4719,0.0
4771,6053749.272882808
2,1, 1, 1, 0, 8, 0.00,60.00,Holiday
9,508270778.3830769
45,189733389.44400008
1207,189143078.4
1867,985540715.9280746
1903,17403336.0
1976,34371746.29938792
2001,12495119.788354595
2183,72000.0
2320,594046958.8607572
2345,7948317.147768609
4186,4298454.811265977
4347,88588090.04064176
4408,751865824.9639531
4534,0.0
4590,26248800.0
4616,0.0
4650,968065379.9280746
4663,0.0
4719,0.0
4771,2062300.7100805075
2,1, 1, 1, 0, 9, 0.00,60.00,Holiday
9,477476907.11695447
45,189733389.44400008
1207,189143078.4
1867,1038453066.1414092
1903,17403336.0
1976,35595362.641287628
2001,12708362.744939397
2183,72000.0
2320,647268604.1953528
2345,13772427.289129682
4186,7164091.348344685
4347,83286734.30452268
4408,708309278.9991284
4534,0.0
4590,0.0
4616,0.0
4650,1020977730.1414092
4663,0.0
4719,0.0
4771,2605342.223492378
2,1, 1, 1, 0,10, 0.00,60.00,Holiday
9,456849724.39283379
45,189733389.44400008
1207,189143078.4
1867,596844223.3962873
1903,17403336.0
1976,37348117.83592518
2001,13009570.16102982
2183,31831592.546508608
2320,371143905.67983958
2345,19571012.274590728
4186,7164091.29598635
4347,63712770.74665302
4408,415283601.5393672
4534,273.17488780692869
4590,0.0
4616,0.0
4650,547609294.8497787
4663,0.0
4719,0.0
4771,1250915.6411509126
2,1, 1, 1, 0,11, 0.00,60.00,Holiday
9,470637617.9644361
45,189733389.44400008
1207,189143078.4
1867,660775217.1294916
1903,17403336.0
1976,37409417.391800109
2001,13025399.993134726
2183,72000.0
2320,387462795.5376059
2345,38029744.065519679
4186,7164091.351341062
4347,77281935.22253567
4408,439515064.00340428
4534,0.0
4590,0.0
4616,0.0
4650,643299881.1294916
4663,0.0
4719,0.0
4771,1453814.904765613
2,1, 1, 1, 0,12, 0.00,60.00,Holiday
9,448736962.7363666
45,189733389.44400008
1207,189143078.4
1867,384382377.4928227
1903,17403336.0
1976,40554095.26744419
2001,16520357.122016563
2183,72000.0
2320,236278968.63745169
2345,39917702.14948107
4186,7164091.348494733
4347,52561001.02296286
4408,282279803.9794161
4534,0.0
4590,0.0
4616,0.0
4650,366907041.4928227
4663,0.0
4719,0.0
4771,779136.7473871198
2,1, 1, 1, 0,13, 0.00,60.00,Holiday
9,464763149.05884549
45,189733389.44400008
1207,189143078.4
1867,558184858.0932599
1903,17403336.0
1976,36646093.27343688
2001,12900956.317053635
2183,31831847.635549718
2320,298082428.72733989
2345,37761863.59587841
4186,7164091.3378154509
4347,71943918.64583236
4408,362476426.9603485
4534,0.0
4590,0.0
4616,0.0
4650,508949674.45771017
4663,0.0
4719,0.0
4771,1041806.2519594046
2,1, 1, 1, 0,14, 0.00,60.00,Holiday
9,451060969.06057175
45,189733389.44400008
1207,189143078.4
1867,359233350.19346466
1903,17403336.0
1976,38255339.53837926
2001,13169283.196113287
2183,72000.0
2320,213285627.76435448
2345,27930869.65812489
4186,7164091.342501125
4347,58374754.16994972
4408,266409577.49004085
4534,0.0
4590,0.0
4616,0.0
4650,341758014.19346466
4663,0.0
4719,0.0
4771,640463.8505086678
2,1, 1, 1, 0,15, 0.00,60.00,Holiday
9,455050818.29712197
45,189733389.44400008
1207,189143078.4
1867,473585234.1951063
1903,17403336.0
1976,38761337.29526735
2001,13253532.4509732
2183,72000.0
2320,258797398.79139448
2345,34740077.520883258
4186,4298454.811244717
4347,62125713.932709638
4408,331386718.76401928
4534,0.0
4590,0.0
4616,0.0
4650,456109898.1951063
4663,0.0
4719,0.0
4771,795104.0694390189
2,1, 1, 1, 0,16, 0.00,60.00,Holiday
9,446558330.37873807
45,189733389.44400008
1207,189143078.4
1867,366670121.48609647
1903,17403336.0
1976,38193356.5763873
2001,13158706.138412876
2183,72000.0
2320,205476144.913341
2345,26866774.05832058
4186,4298454.810875342
4347,53958248.01186365
4408,262940798.86626215
4534,0.0
4590,0.0
4616,0.0
4650,349194785.48609647
4663,0.0
4719,0.0
4771,564908.3844613746
2,1, 1, 1, 0,17, 0.00,60.00,Holiday
9,512169909.6375231
45,189733389.44400008
1207,189143078.4
1867,548913463.2257145
1903,17403336.0
1976,33955072.56447588
2001,12452238.098405533
2183,31802261.652234284
2320,275252666.93952557
2345,33032863.19711548
4186,4298454.810092341
4347,67527412.4877463
4408,348993118.2745944
4534,0.0
4590,52497600.0
4616,0.0
4650,499707865.5734801
4663,0.0
4719,0.0
4771,816191.2073711541
2,1, 1, 1, 0,18, 0.00,60.00,Holiday
9,534233254.1046363
45,189733389.44400008
1207,189143078.4
1867,404805196.2512517
1903,17403336.0
1976,33933056.052646297
2001,12448481.099570698
2183,72000.0
2320,233584830.48150299
2345,25690390.510057779
4186,4298454.809167974
4347,63553565.80081957
4408,283636120.2606035
4534,0.0
4590,78746400.0
4616,0.0
4650,387329860.2512517
4663,0.0
4719,0.0
4771,608339.3602458953
2,1, 1, 1, 0,19, 0.00,60.00,Holiday
9,535647860.70704379
45,189733389.44400008
1207,189143078.4
1867,587506491.4575708
1903,17403336.0
1976,33905239.84110698
2001,12443734.413303974
2183,72000.0
2320,313229942.8230517
2345,29874175.192837545
4186,4298454.811362068
4347,64635517.27522782
4408,387403630.0543049
4534,0.0
4590,78746400.0
4616,0.0
4650,570031155.4575708
4663,0.0
4719,0.0
4771,945741.1745119902
2,1, 1, 1, 0,20, 0.00,60.00,Holiday
9,527116896.23650208
45,189733389.44400008
1207,189143078.4
1867,441931131.70874807
1903,17403336.0
1976,40482202.7652106
2001,13984744.27210149
2183,72000.0
2320,250438957.72224096
2345,22246256.35179899
4186,4298454.811240269
4347,54816076.45214753
4408,310594811.66410228
4534,0.0
4590,78746400.0
4616,0.0
4650,424455795.70874807
4663,0.0
4719,0.0
4771,693207.6682530234
2,1, 1, 1, 0,21, 0.00,60.00,Holiday
9,546881268.3370319
45,189733389.44400008
1207,189143078.4
1867,597767935.0766151
1903,17403336.0
1976,40070142.51141613
2001,13887625.178019414
2183,72000.0
2320,332785641.7687816
2345,27228295.92230948
4186,4298454.811153723
4347,74390040.01001719
4408,401813194.60272958
4534,0.0
4590,78746400.0
4616,0.0
4650,580292599.0766151
4663,0.0
4719,0.0
4771,980735.3049952061
2,1, 1, 1, 0,22, 0.00,60.00,Holiday
9,564197341.5605517
45,189733389.44400008
1207,189143078.4
1867,865526392.2251473
1903,17403336.0
1976,36412576.33222049
2001,13045548.035013466
2183,31802492.460883209
2320,476726447.75024947
2345,10948626.86546232
4186,4298454.810410422
4347,92057684.99078597
4408,564411495.8950878
4534,0.0
4590,78746400.0
4616,0.0
4650,816320563.7642641
4663,0.0
4719,0.0
4771,1471240.6907521955
2,1, 1, 1, 0,23, 0.00,60.00,Holiday
9,571197856.4706421
45,189733389.44400008
1207,189143078.4
1867,1118818242.9595347
1903,17403336.0
1976,31449199.514179328
2001,11897113.279871988
2183,72000.0
2320,621398020.8775075
2345,12273244.478295636
4186,4298454.810636561
4347,99349616.10450407
4408,763885326.6105059
4534,0.0
4590,78746400.0
4616,0.0
4650,1101342906.9595347
4663,0.0
4719,0.0
4771,2328259.24226594
2,1, 1, 1, 0,24, 0.00,60.00,Holiday
9,569801260.4904765
45,189733389.44400008
1207,189143078.4
1867,847858357.231331
1903,17403336.0
1976,35111790.17178335
2001,15460081.831456105
2183,72000.0
2320,521841434.7849946
2345,9034094.88913466
4186,4298454.811366551
4347,95089500.5404276
4408,620906003.4990875
4534,0.0
4590,78746400.0
4616,0.0
4650,830383021.231331
4663,0.0
4719,0.0
4771,1628810.2745928092
2,2, 1, 2, 0, 1, 0.00,60.00,Monday
9,597560578.4987085
45,189733389.44400008
1207,189143078.4
1867,1272442124.0833779
1903,17403336.0
1976,31333321.772570485
2001,11877433.785590519
2183,72000.0
2320,733392799.6197488
2345,9768398.849828709
4186,7178020.460067072
4347,125320346.57415763
4408,877353245.396275
4534,0.0
4590,78746400.0
4616,0.0
4650,1254966788.0833779
4663,0.0
4719,0.0
4771,2739930.2949602876
2,2, 1, 2, 0, 2, 0.00,60.00,Monday
9,588497787.7884774
45,189733389.44400008
1207,189143078.4
1867,997490653.1211885
1903,17403336.0
1976,31288538.41719026
2001,11869877.16759362
2183,31833024.434777708
2320,603404763.8719214
2345,7003724.390932211
4186,7178020.44280619
4347,117068644.32621019
4408,707514015.1827285
4534,0.0
4590,78746400.0
4616,0.0
4650,948254292.6864108
4663,0.0
4719,0.0
4771,1936398.45067361
2,2, 1, 2, 0, 3, 0.00,60.00,Monday
9,633668900.602347
45,189733389.44400008
1207,189143078.4
1867,1314309306.0812734
1903,17403336.0
1976,31265381.01835216
2001,11865905.11646739
2183,72000.0
2320,778824581.420408
2345,8856226.095750759
4186,7178020.457630337
4347,161244626.72899635
4408,911190541.4230244
4534,0.0
4590,78746400.0
4616,0.0
4650,1296833970.0812734
4663,0.0
4719,0.0
4771,2935500.912883194
2,2, 1, 2, 0, 4, 0.00,60.00,Monday
9,568562297.445786
45,189733389.44400008
1207,189143078.4
1867,982213836.9434456
1903,17403336.0
1976,31250544.53156447
2001,11863404.655980435
2183,72000.0
2320,607266960.0676875
2345,6908816.075187641
4186,7178020.460223557
4347,97110710.90685535
4408,720668952.7686844
4534,339.8130534237512
4590,78746400.0
4616,0.0
4650,964738500.9434456
4663,0.0
4719,0.0
4771,1965314.0389502182
2,2, 1, 2, 0, 5, 0.00,60.00,Monday
9,628436337.9424015
45,189733389.44400008
1207,189143078.4
1867,1279845441.0036412
1903,17403336.0
1976,37863093.98019632
2001,13410417.468470224
2183,31832734.560141609
2320,742108105.7137334
2345,9966836.292202115
4186,7178020.444413131
4347,154591982.25587807
4408,865673155.7304672
4534,0.0
4590,78746400.0
4616,0.0
4650,1230609370.4434996
4663,0.0
4719,0.0
4771,2811070.37405329
2,2, 1, 2, 0, 6, 0.00,60.00,Monday
9,567781986.1054447
45,189733389.44400008
1207,189143078.4
1867,882407322.7078676
1903,17403336.0
1976,37499265.06821776
2001,13321464.772688032
2183,72000.0
2320,551413681.2172551
2345,8674731.729271774
4186,7178020.461158128
4347,95089500.5404276
4408,648340975.5700884
4534,0.0
4590,78746400.0
4616,0.0
4650,864931986.7078676
4663,0.0
4719,0.0
4771,1748152.9483289922
2,2, 1, 2, 0, 7, 0.00,60.00,Monday
9,747805439.1317422
45,189733389.44400008
1207,191659478.4
1867,8888924283.09681
1903,17403336.0
1976,35458964.94832444
2001,12865996.275271815
2183,72000.0
2320,2486372710.5745675
2345,30757690.200788659
4186,7178020.456773354
4347,254313066.00440527
4408,6525354451.293756
4534,0.0
4590,78746400.0
4616,0.0
4650,8871448947.09681
4663,0.0
4719,0.0
4771,20487109.00806517
2,2, 1, 2, 0, 8, 0.00,60.00,Monday
9,1463345194.7702432
45,963113651.9999994
1207,191659478.4
1867,7587695330.340062
1903,17403336.0
1976,35553628.68443592
2001,14009319.619019822
2183,97604431.50962655
2320,1598505419.760247
2345,47788891.32854618
4186,77348284.77996893
4347,254313066.00440527
4408,5660144055.97957
4534,0.0
4590,26248800.0
4616,0.0
4650,7472687562.830436
4663,0.0
4719,0.0
4771,14000878.746819046
2,2, 1, 2, 0, 9, 0.00,60.00,Monday
9,1761086649.0250476
45,963113651.9999994
1207,524349514.9186813
1867,6134757885.646634
1903,130525020.0
1976,37314509.40012957
2001,14312054.10203126
2183,131167122.28500325
2320,598387096.7355409
2345,137181502.6539318
4186,101303899.2710907
4347,254313066.00440527
4408,4514391384.787006
4534,62800.166202276894
4590,0.0
4616,7051.139127960919
4650,5873065743.361631
4663,0.0
4719,0.0
4771,4991310.860801739
2,2, 1, 2, 0,10, 0.00,60.00,Monday
9,1760386848.1701277
45,963113651.9999994
1207,524349514.9186813
1867,5772955184.59226
1903,130525020.0
1976,38667061.74594612
2001,14567582.571738912
2183,199201717.19195778
2320,375870099.3962609
2345,173888100.05598483
4186,138629319.96565233
4347,254313066.00440527
4408,4137528090.169826
4534,58070.22559161917
4590,0.0
4616,6812.483870778403
4650,5443228447.400303
4663,0.0
4719,0.0
4771,4036220.191431645
2,2, 1, 2, 0,11, 0.00,60.00,Monday
9,1781361791.0675114
45,963113651.9999994
1207,545953921.3186814
1867,5279232320.089352
1903,174033360.00000004
1976,39160723.52464749
2001,14723349.60039549
2183,166257846.60499663
2320,209113015.11941026
2345,203437760.41062419
4186,142935913.85504986
4347,254313066.00440527
4408,3761884300.0766146
4534,37283.337346711865
4590,0.0
4616,4498.9882245319299
4650,4938941113.484355
4663,0.0
4719,0.0
4771,3253303.155804687
2,2, 1, 2, 0,12, 0.00,60.00,Monday
9,1784635807.4818435
45,963113651.9999994
1207,545953921.3186814
1867,4869316919.577838
1903,174033360.00000004
1976,43543536.35106221
2001,18442666.716166449
2183,200425760.89784087
2320,94667974.40537381
2345,343628444.63419649
4186,155857005.99933315
4347,254313066.00440527
4408,3416983102.926073
4534,0.0
4590,0.0
4616,0.0
4650,4494857798.6799969
4663,0.0
4719,0.0
4771,2812501.4425907547
2,2, 1, 2, 0,13, 0.00,60.00,Monday
9,1780812688.6302653
45,963113651.9999994
1207,545953921.3186814
1867,4730758025.133087
1903,174033360.00000004
1976,39479181.204993288
2001,14819589.69763657
2183,234586892.0859322
2320,56363168.43850594
2345,439150314.7469224
4186,165906253.0915918
4347,254313066.00440527
4408,3287550421.595665
4534,0.0
4590,0.0
4616,0.0
4650,4322137773.047155
4663,0.0
4719,0.0
4771,2612459.609542342
2,2, 1, 2, 0,14, 0.00,60.00,Monday
9,1759489227.4578663
45,963113651.9999994
1207,524349514.9186813
1867,4909876040.441256
1903,87016680.00000002
1976,40377975.78340698
2001,14888668.593365264
2183,201479183.80682857
2320,43233029.78083526
2345,412833608.4095008
4186,171648678.63800658
4347,254313066.00440527
4408,3510001382.1593568
4534,0.0
4590,0.0
4616,0.0
4650,4621380176.634428
4663,0.0
4719,0.0
4771,2824325.941414742
2,2, 1, 2, 0,15, 0.00,60.00,Monday
9,1759717764.8933507
45,963113651.9999994
1207,524349514.9186813
1867,5145143663.225339
1903,87016680.00000002
1976,40468307.80612026
2001,14847216.524469082
2183,199290073.33044315
2320,39724397.77023444
2345,440686896.8006957
4186,140065244.59913085
4347,254313066.00440527
4408,3700511342.9449255
4534,0.0
4590,0.0
4616,0.0
4650,4858836909.8948969
4663,0.0
4719,0.0
4771,3094315.445795244
2,2, 1, 2, 0,16, 0.00,60.00,Monday
9,1731228511.2353867
45,963113651.9999994
1207,496207971.0593406
1867,4670987496.546053
1903,17403336.0
1976,39418190.45413354
2001,14684875.978204553
2183,166412878.50825919
2320,47044461.41350903
2345,628015225.6883702
4186,145807245.3712697
4347,254313066.00440527
4408,3430538546.9281108
4534,0.0
4590,0.0
4616,0.0
4650,4487171282.037794
4663,0.0
4719,0.0
4771,2908946.1934365259
2,2, 1, 2, 0,17, 0.00,60.00,Monday
9,1765698242.6223157
45,963113651.9999994
1207,478868630.4
1867,4314684673.297963
1903,17403336.0
1976,34384858.67068035
2001,13873242.346542499
2183,164929859.07066927
2320,68692630.64302565
2345,819510190.6435926
4186,119342328.83542535
4347,254313066.00440527
4408,3152597282.8047115
4534,0.0
4590,52497600.0
4616,0.0
4650,4132351478.227294
4663,0.0
4719,0.0
4771,3032051.8713680927
2,2, 1, 2, 0,18, 0.00,60.00,Monday
9,1505203051.2839993
45,963113651.9999994
1207,191659478.4
1867,4976063514.653402
1903,17403336.0
1976,34068582.75382482
2001,13780961.345988246
2183,164912711.0041816
2320,157365146.19147448
2345,573052878.8773987
4186,119342522.75646782
4347,254313066.00440527
4408,3628683015.7446806
4534,0.0
4590,78746400.0
4616,0.0
4650,4793747467.64922
4663,0.0
4719,0.0
4771,3589493.5336065588
2,2, 1, 2, 0,19, 0.00,60.00,Monday
9,1505135466.5265685
45,963113651.9999994
1207,191659478.4
1867,4886283619.547324
1903,17403336.0
1976,34096414.90969787
2001,13793518.183446393
2183,165648848.36631123
2320,152754239.04046709
2345,583354035.3859608
4186,132262829.39873038
4347,254313066.00440527
4408,3572684634.2308208
4534,0.0
4590,78746400.0
4616,0.0
4650,4703231435.181014
4663,0.0
4719,0.0
4771,3509351.938717795
2,2, 1, 2, 0,20, 0.00,60.00,Monday
9,1506331142.3584696
45,963113651.9999994
1207,191659478.4
1867,4513699495.191355
1903,17403336.0
1976,40855150.41030994
2001,15419003.103233558
2183,32133753.4990843
2320,132451321.68311209
2345,584671683.9935036
4186,35890060.82698563
4347,254313066.00440527
4408,3388942615.9440219
4534,0.0
4590,78746400.0
4616,0.0
4650,4464162405.69227
4663,0.0
4719,0.0
4771,3079542.8508314795
2,2, 1, 2, 0,21, 0.00,60.00,Monday
9,1506068625.1441396
45,963113651.9999994
1207,191659478.4
1867,4390082822.596235
1903,17403336.0
1976,40514395.15092283
2001,15377260.66597822
2183,64104186.81583984
2320,137553489.34544534
2345,592704601.807135
4186,31583256.072248628
4347,254313066.00440527
4408,3272419819.511574
4534,0.0
4590,78746400.0
4616,0.0
4650,4308575299.7803959
4663,0.0
4719,0.0
4771,2858768.0737573124
2,2, 1, 2, 0,22, 0.00,60.00,Monday
9,476675769.08117279
45,189733389.44400008
1207,189143078.4
1867,63414024.402333389
1903,17403336.0
1976,36295538.7495589
2001,13168381.875642192
2183,32092453.428460886
2320,8779648.672709523
2345,53786477.93723467
4186,31583282.835552236
4347,5817011.146993412
4408,15308233.11980669
4534,0.0
4590,78746400.0
4616,0.0
4650,13918234.9738725
4663,0.0
4719,0.0
4771,67508.21453712283
2,2, 1, 2, 0,23, 0.00,60.00,Monday
9,476820968.9674751
45,189733389.44400008
1207,189143078.4
1867,73898476.56035802
1903,17403336.0
1976,33697979.8709205
2001,12343493.764869076
2183,31936677.446913266
2320,13094310.378382784
2345,50120399.01778455
4186,17227248.657969268
4347,6783748.203696336
4408,26782913.43011328
4534,0.0
4590,78746400.0
4616,0.0
4650,24558463.113444739
4663,0.0
4719,0.0
4771,70859.15490964065
2,2, 1, 2, 0,24, 0.00,60.00,Monday
9,493027475.52577027
45,189733389.44400008
1207,189143078.4
1867,98199390.96651025
1903,17403336.0
1976,38913675.22637772
2001,16162559.016135943
2183,72000.0
2320,39793080.90208242
2345,132336421.77799966
4186,12920436.714385039
4347,19073208.70546643
4408,77215641.41848277
4534,0.0
4590,78746400.0
4616,0.0
4650,80724054.96651025
4663,0.0
4719,0.0
4771,168839.96016779613
2,3, 1, 3, 0, 1, 0.00,60.00,Tuesday
9,485436546.324184
45,189733389.44400008
1207,189143078.4
1867,141150189.90058799
1903,17403336.0
1976,34332559.462251868
2001,12383352.608117743
2183,31833083.341293064
2320,45160394.094798598
2345,96404482.72523764
4186,7191685.515820504
4347,15258566.964373146
4408,78283029.97325723
4534,0.0
4590,78746400.0
4616,0.0
4650,91913770.55929488
4663,0.0
4719,0.0
4771,171758.90769304464
2,3, 1, 3, 0, 2, 0.00,60.00,Tuesday
9,489346075.12297287
45,189733389.44400008
1207,189143078.4
1867,183360837.66761963
1903,17403336.0
1976,34202155.61476392
2001,12361548.529773273
2183,72000.0
2320,67313765.17789179
2345,93814678.33912818
4186,7191685.495303938
4347,19073208.70546643
4408,131105679.05931629
4534,0.0
4590,78746400.0
4616,0.0
4650,165885501.66761963
4663,0.0
4719,0.0
4771,288450.04373311388
2,3, 1, 3, 0, 3, 0.00,60.00,Tuesday
9,487245929.61608836
45,189733389.44400008
1207,189143078.4
1867,193328795.51546944
1903,17403336.0
1976,34074607.74335602
2001,12367111.213445794
2183,72000.0
2320,75202725.73811995
2345,63763163.92823343
4186,7191685.51706556
4347,16974223.844940865
4408,134129103.28796527
4534,0.0
4590,78746400.0
4616,0.0
4650,175853459.51546944
4663,0.0
4719,0.0
4771,281726.7137015552
2,3, 1, 3, 0, 4, 0.00,60.00,Tuesday
9,526297691.17301276
45,189733389.44400008
1207,189143078.4
1867,280261938.4701997
1903,17403336.0
1976,33945390.86901012
2001,12337597.526540192
2183,72000.0
2320,141634918.39712069
2345,74494304.29557228
4186,7191685.515896335
4347,55929868.91572247
4408,192613081.01783423
4534,0.0
4590,78746400.0
4616,0.0
4650,262786602.4701997
4663,0.0
4719,0.0
4771,407356.88674998076
2,3, 1, 3, 0, 5, 0.00,60.00,Tuesday
9,529256922.29214987
45,189733389.44400008
1207,189143078.4
1867,345314339.59926
1903,17403336.0
1976,66505733.81585543
2001,19954269.720691857
2183,31833197.215518174
2320,164327615.19450397
2345,55695861.55726927
4186,7191685.51621079
4347,51225557.74517864
4408,199930022.01869578
4534,0.0
4590,78746400.0
4616,0.0
4650,296077806.3837418
4663,0.0
4719,0.0
4771,454226.98227927027
2,3, 1, 3, 0, 6, 0.00,60.00,Tuesday
9,541623280.9484342
45,189733389.44400008
1207,189143078.4
1867,450640743.927454
1903,17403336.0
1976,61059106.686469297
2001,18691439.287876145
2183,72000.0
2320,251075947.8795181
2345,61907486.26395155
4186,7191685.517031777
4347,64635517.27522782
4408,301078044.32880368
4534,0.0
4590,78746400.0
4616,0.0
4650,433165407.927454
4663,0.0
4719,0.0
4771,673456.5413301368
2,3, 1, 3, 0, 7, 0.00,60.00,Tuesday
9,750257511.8205094
45,189733389.44400008
1207,191659478.4
1867,9086157071.859148
1903,17403336.0
1976,47063221.36588974
2001,15514288.345077835
2183,72000.0
2320,2153461816.0556948
2345,54191196.01631163
4186,7191685.511387594
4347,254313066.00440527
4408,6640047717.050623
4534,0.0
4590,78746400.0
4616,0.0
4650,9068681735.859148
4663,0.0
4719,0.0
4771,20290889.6270263
2,3, 1, 3, 0, 8, 0.00,60.00,Tuesday
9,1456970757.5096656
45,963113651.9999994
1207,191659478.4
1867,7451500197.619156
1903,17403336.0
1976,36147672.870889637
2001,14110258.787254913
2183,119294149.2928406
2320,1000322869.8625195
2345,69994205.97365995
4186,77506131.58984767
4347,254313066.00440527
4408,5608484073.739946
4534,0.0
4590,26248800.0
4616,0.0
4650,7314802712.326315
4663,0.0
4719,0.0
4771,7525502.318006273
2,3, 1, 3, 0, 9, 0.00,60.00,Tuesday
9,1761192217.4158092
45,963113651.9999994
1207,524349514.9186813
1867,6612361891.368128
1903,130525020.0
1976,37778164.19127877
2001,14390693.963011317
2183,132296642.11876574
2320,230088807.17842416
2345,229242956.23622949
4186,101505536.80779693
4347,254313066.00440527
4408,4821770272.571686
4534,0.0
4590,0.0
4616,0.0
4650,6349540229.249362
4663,0.0
4719,0.0
4771,5025290.529711604
2,3, 1, 3, 0,10, 0.00,60.00,Tuesday
9,1761318805.670231
45,963113651.9999994
1207,524349514.9186813
1867,6587962990.1299099
1903,130525020.0
1976,38854570.80223434
2001,14571535.854973579
2183,175925869.83849839
2320,147350964.42221237
2345,290464721.9979261
4186,138901593.95968355
4347,254313066.00440527
4408,4776421354.98861
4534,0.0
4590,0.0
4616,0.0
4650,6281512100.291411
4663,0.0
4719,0.0
4771,4971036.89217136
2,3, 1, 3, 0,11, 0.00,60.00,Tuesday
9,1782671703.0267776
45,963113651.9999994
1207,545953921.3186814
1867,6378006057.235601
1903,174033360.00000004
1976,39173503.88528174
2001,14628629.08408651
2183,166243139.4004547
2320,99763436.99297697
2345,363207433.92407646
4186,143217475.06788809
4347,254313066.00440527
4408,4599748332.712093
4534,0.0
4590,0.0
4616,0.0
4650,6037729557.835146
4663,0.0
4719,0.0
4771,4662434.619604716
2,3, 1, 3, 0,12, 0.00,60.00,Tuesday
9,1786077196.827866
45,963113651.9999994
1207,545953921.3186814
1867,6038054154.964211
1903,174033360.00000004
1976,43445451.77208077
2001,18360631.497270366
2183,203568783.67961104
2320,66319812.08437217
2345,502938171.1004039
4186,156162722.40593723
4347,254313066.00440527
4408,4316381264.332269
4534,0.0
4590,0.0
4616,0.0
4650,5660452011.284601
4663,0.0
4719,0.0
4771,4335926.007509271
2,3, 1, 3, 0,13, 0.00,60.00,Tuesday
9,1782101648.0611959
45,963113651.9999994
1207,545953921.3186814
1867,5837186053.586496
1903,174033360.00000004
1976,39335711.08802667
2001,14662977.80071339
2183,231460535.84022147
2320,47563743.91494266
2345,549850446.2785331
4186,166231217.5490072
4347,254313066.00440527
4408,4144484721.899724
4534,0.0
4590,0.0
4616,0.0
4650,5431692157.746274
4663,0.0
4719,0.0
4771,4058030.9373961586
2,3, 1, 3, 0,14, 0.00,60.00,Tuesday
9,1760498688.9637733
45,963113651.9999994
1207,524349514.9186813
1867,5713967437.103734
1903,87016680.00000002
1976,40117909.43798831
2001,14788024.484697674
2183,201535589.45484466
2320,34619880.946893777
2345,500334515.54110327
4186,171984553.7421756
4347,254313066.00440527
4408,4141729864.051942
4534,0.0
4590,0.0
4616,0.0
4650,5425415167.6488909
4663,0.0
4719,0.0
4771,3934431.555989231
2,3, 1, 3, 0,15, 0.00,60.00,Tuesday
9,1760419888.2733284
45,963113651.9999994
1207,524349514.9186813
1867,5682349512.127752
1903,87016680.00000002
1976,40057059.82080838
2001,14774207.486077238
2183,199334254.38148127
2320,28951956.0175869
2345,518985206.2944897
4186,140340553.4322027
4347,254313066.00440527
4408,4120512236.485552
4534,0.0
4590,0.0
4616,0.0
4650,5395998577.746271
4663,0.0
4719,0.0
4771,3869447.8641649347
2,3, 1, 3, 0,16, 0.00,60.00,Tuesday
9,1732090040.0056709
45,963113651.9999994
1207,496207971.0593406
1867,5416018675.368621
1903,17403336.0
1976,38979391.19873007
2001,14591772.445145179
2183,199679819.71752364
2320,34308918.72788186
2345,678272775.4230437
4186,146094460.00605289
4347,254313066.00440527
4408,3968352655.590111
4534,0.0
4590,0.0
4616,0.0
4650,5198935519.651097
4663,0.0
4719,0.0
4771,3863578.4967800804
2,3, 1, 3, 0,17, 0.00,60.00,Tuesday
9,1766602303.0288244
45,963113651.9999994
1207,478868630.4
1867,5091521730.387353
1903,17403336.0
1976,33798613.20286317
2001,13723602.813972967
2183,131971178.15928118
2320,53276573.91681327
2345,885576128.7473644
4186,119587784.33387612
4347,254313066.00440527
4408,3768351817.619747
4534,0.0
4590,52497600.0
4616,0.0
4650,4942147216.228072
4663,0.0
4719,0.0
4771,4085751.8104464046
2,3, 1, 3, 0,18, 0.00,60.00,Tuesday
9,1505902770.344376
45,963113651.9999994
1207,191659478.4
1867,5583638506.843084
1903,17403336.0
1976,33495542.89754028
2001,13671968.356140087
2183,164929948.0414111
2320,107981471.30618523
2345,596270188.5823085
4186,119587936.09297905
4347,254313066.00440527
4408,4107746431.845811
4534,0.0
4590,78746400.0
4616,0.0
4650,5401305222.801673
4663,0.0
4719,0.0
4771,4398205.583831637
2,3, 1, 3, 0,19, 0.00,60.00,Tuesday
9,1505945976.9006758
45,963113651.9999994
1207,191659478.4
1867,5613212788.170656
1903,17403336.0
1976,33490431.40003282
2001,13671069.30231645
2183,165650988.30555863
2320,123663838.77315188
2345,597832562.1907284
4186,132532747.40438384
4347,254313066.00440527
4408,4120730505.309653
4534,0.0
4590,78746400.0
4616,0.0
4650,5430158463.865097
4663,0.0
4719,0.0
4771,4442311.19395508
2,3, 1, 3, 0,20, 0.00,60.00,Tuesday
9,1505854723.9289077
45,963113651.9999994
1207,191659478.4
1867,5533409402.569277
1903,17403336.0
1976,33555253.43218078
2001,13682300.73615982
2183,64196046.16764377
2320,130219392.16338018
2345,588696780.9514402
4186,35958382.381557669
4347,254313066.00440527
4408,4136811728.2923915
4534,0.0
4590,78746400.0
4616,0.0
4650,5451810020.401632
4663,0.0
4719,0.0
4771,4339826.788343669
2,3, 1, 3, 0,21, 0.00,60.00,Tuesday
9,1505864717.70362
45,963113651.9999994
1207,191659478.4
1867,5536901516.582705