Program Version,EnergyPlus, Version 9.2.0-921312fa1d, YMD=2020.12.22 18:09
1,5,Environment Title[],Latitude[deg],Longitude[deg],Time Zone[],Elevation[m]
2,8,Day of Simulation[],Month[],Day of Month[],DST Indicator[1=yes 0=no],Hour[],StartMinute[],EndMinute[],DayType
3,5,Cumulative Day of Simulation[],Month[],Day of Month[],DST Indicator[1=yes 0=no],DayType  ! When Daily Meters Requested
4,2,Cumulative Days of Simulation[],Month[]  ! When Monthly Meters Requested
5,1,Cumulative Days of Simulation[] ! When Run Period Meters Requested
6,1,Calendar Year of Simulation[] ! When Annual Meters Requested
9,1,Electricity:Facility [J] !Hourly
4627,1,Heating:Electricity [J] !Hourly
4572,1,Cooling:Electricity [J] !Hourly
45,1,InteriorLights:Electricity [J] !Hourly
4534,1,ExteriorLights:Electricity [J] !Hourly
1207,1,InteriorEquipment:Electricity [J] !Hourly
4347,1,Fans:Electricity [J] !Hourly
4696,1,Pumps:Electricity [J] !Hourly
2001,1,Refrigeration:Electricity [J] !Hourly
1867,1,Gas:Facility [J] !Hourly
4614,1,Heating:Gas [J] !Hourly
1903,1,InteriorEquipment:Gas [J] !Hourly
2183,1,WaterSystems:Gas [J] !Hourly
2320,1,Heating:EnergyTransfer [J] !Hourly
2345,1,Cooling:EnergyTransfer [J] !Hourly
4186,1,WaterSystems:EnergyTransfer [J] !Hourly
1976,1,Refrigeration:EnergyTransfer [J] !Hourly
4408,1,HeatingCoils:EnergyTransfer [J] !Hourly
4559,1,CoolingCoils:EnergyTransfer [J] !Hourly
End of Data Dictionary
1,RUNPERIOD 1,  41.98, -87.92,  -6.00, 201.00
2,1, 1, 1, 0, 1, 0.00,60.00,Holiday
9,709425826.7021406
45,189733389.44400008
1207,189143078.4
1867,1429018812.5233594
1903,17403336.0
1976,30999887.53116354
2001,11821359.418826167
2183,72000.0
2320,1127412603.3001309
2345,9461.21713061626
4186,4298454.808827964
4347,226937535.99674968
4408,1104276128.8355692
4534,78746400.0
4559,0.0
4572,0.0
4614,1411543476.5233594
4627,0.0
4696,13044063.442564737
2,1, 1, 1, 0, 2, 0.00,60.00,Holiday
9,707125565.4449799
45,189733389.44400008
1207,189143078.4
1867,1478424443.8250838
1903,17403336.0
1976,29456375.12782092
2001,11556692.680583429
2183,72000.0
2320,1145051588.9910403
2345,0.0
4186,4298454.811210795
4347,225624954.09844268
4408,1151452744.7086549
4534,78746400.0
4559,0.0
4572,0.0
4614,1460949107.8250838
4627,0.0
4696,12321050.821953819
2,1, 1, 1, 0, 3, 0.00,60.00,Holiday
9,716681402.1144945
45,189733389.44400008
1207,189143078.4
1867,2009218005.787162
1903,17403336.0
1976,27590792.909862967
2001,11236773.02245064
2183,72000.0
2320,1533208280.1210278
2345,0.0
4186,4298454.81126176
4347,231389847.56466327
4408,1570459866.0868049
4534,78746400.0
4559,0.0
4572,0.0
4614,1991742669.787162
4627,0.0
4696,16431913.683380478
2,1, 1, 1, 0, 4, 0.00,60.00,Holiday
9,707485611.6294165
45,189733389.44400008
1207,189143078.4
1867,1538694799.6389986
1903,17403336.0
1976,26828883.016198189
2001,11106050.384390692
2183,72000.0
2320,1200352079.8192075
2345,0.0
4186,4298454.810978253
4347,226190925.4864697
4408,1198351193.495914
4534,78746400.0
4559,0.0
4572,0.0
4614,1521219463.6389986
4627,0.0
4696,12565767.914556092
2,1, 1, 1, 0, 5, 0.00,60.00,Holiday
9,718694431.2389044
45,189733389.44400008
1207,189143078.4
1867,2100273546.557941
1903,17403336.0
1976,33153007.281679527
2001,12603512.074446962
2183,31008641.263893144
2320,1586609158.720903
2345,0.0
4186,4298454.811050972
4347,231783103.5990913
4408,1617239765.3572505
4534,78746400.0
4559,0.0
4572,0.0
4614,2051861569.2940479
4627,0.0
4696,16684947.721366086
2,1, 1, 1, 0, 6, 0.00,60.00,Holiday
9,718728181.3023464
45,189733389.44400008
1207,189143078.4
1867,1565305791.4874864
1903,17403336.0
1976,32601588.272404985
2001,12482462.412446497
2183,72000.0
2320,1235982993.3392819
2345,0.0
4186,4298454.81106737
4347,235918390.39205397
4408,1218961126.9755483
4534,78746400.0
4559,0.0
4572,0.0
4614,1547830455.4874864
4627,0.0
4696,12704460.653845784
2,1, 1, 1, 0, 7, 0.00,60.00,Holiday
9,729283696.2899181
45,189733389.44400008
1207,189143078.4
1867,2113293354.5119999
1903,17403336.0
1976,33835054.69376374
2001,12591792.384461094
2183,72000.0
2320,1627088071.3467885
2345,0.0
4186,4298454.81134938
4347,242163199.7175949
4408,1651884724.8647915
4534,78746400.0
4559,0.0
4572,0.0
4614,2095818018.5119999
4627,0.0
4696,16905836.343862054
2,1, 1, 1, 0, 8, 0.00,60.00,Holiday
9,608829629.8227772
45,189733389.44400008
1207,189143078.4
1867,1089230779.460829
1903,17403336.0
1976,32148284.368827009
2001,12105456.067001638
2183,72000.0
2320,834247199.7248986
2345,0.0
4186,4298454.81126559
4347,181669886.96196727
4408,842654824.9320778
4534,26248800.0
4559,0.0
4572,0.0
4614,1071755443.4608293
4627,0.0
4696,9929018.949808175
2,1, 1, 1, 0, 9, 0.00,60.00,Holiday
9,596380481.2701663
45,189733389.44400008
1207,189143078.4
1867,1067292722.286279
1903,17403336.0
1976,34020923.25619285
2001,12432559.708737802
2183,72000.0
2320,889222860.293793
2345,2908380.286712673
4186,7164091.3495971369
4347,197403254.02878068
4408,861438019.4165889
4534,0.0
4559,0.0
4572,0.0
4614,1049817386.286279
4627,0.0
4696,7668199.688647686
2,1, 1, 1, 0,10, 0.00,60.00,Holiday
9,564680659.0257566
45,189733389.44400008
1207,189143078.4
1867,558715089.212075
1903,17403336.0
1976,36342692.66153854
2001,12833210.31871293
2183,31032369.992671484
2320,512125134.7797227
2345,7873517.474777719
4186,7164091.334476166
4347,170886865.37056045
4408,500815775.988497
4534,0.0
4559,0.0
4572,0.0
4614,510279383.2194035
4627,0.0
4696,2084115.4924832034
2,1, 1, 1, 0,11, 0.00,60.00,Holiday
9,525439023.02064779
45,189733389.44400008
1207,189143078.4
1867,562658893.1136617
1903,17403336.0
1976,36846594.08478811
2001,12926478.653476984
2183,72000.0
2320,481938633.23740109
2345,13886053.260333483
4186,7164091.351239352
4347,131834931.94688368
4408,426646527.4526667
4534,0.0
4559,0.0
4572,0.0
4614,545183557.1136617
4627,0.0
4696,1801144.576287072
2,1, 1, 1, 0,12, 0.00,60.00,Holiday
9,499408974.5568574
45,189733389.44400008
1207,189143078.4
1867,304778647.43968155
1903,17403336.0
1976,40608683.616794589
2001,16546129.303731289
2183,72000.0
2320,297276009.6447761
2345,10915238.483008959
4186,7164091.3485190649
4347,103104473.85426833
4408,247015514.4549759
4534,0.0
4559,0.0
4572,0.0
4614,287303311.43968155
4627,0.0
4696,881903.5548576883
2,1, 1, 1, 0,13, 0.00,60.00,Holiday
9,527049870.76634636
45,189733389.44400008
1207,189143078.4
1867,431868945.44363608
1903,17403336.0
1976,36520229.507968049
2001,12879390.96070753
2183,31037791.227050917
2320,355216127.9775633
2345,11048625.22623583
4186,7164091.326348662
4347,134128520.05455798
4408,286325475.9363148
4534,0.0
4559,0.0
4572,0.0
4614,383427818.21658518
4627,0.0
4696,1165491.9070807647
2,1, 1, 1, 0,14, 0.00,60.00,Holiday
9,498528134.5071292
45,189733389.44400008
1207,189143078.4
1867,233644945.42323608
1903,17403336.0
1976,38113795.50067962
2001,13145129.470544437
2183,72000.0
2320,248270970.98831455
2345,7310929.276198606
4186,7164091.351766334
4347,105894177.93493946
4408,194772374.0965117
4534,0.0
4559,0.0
4572,0.0
4614,216169609.42323608
4627,0.0
4696,612359.2576453156
2,1, 1, 1, 0,15, 0.00,60.00,Holiday
9,514976925.44771119
45,189733389.44400008
1207,189143078.4
1867,329689872.1449069
1903,17403336.0
1976,38607341.696902018
2001,13227253.933826333
2183,72000.0
2320,304073562.93873789
2345,8271575.268204588
4186,4298454.811186634
4347,122036010.2736201
4408,246708210.4925702
4534,0.0
4559,0.0
4572,0.0
4614,312214536.1449069
4627,0.0
4696,837193.3962646461
2,1, 1, 1, 0,16, 0.00,60.00,Holiday
9,499719990.052231
45,189733389.44400008
1207,189143078.4
1867,254229342.04237683
1903,17403336.0
1976,38025372.54038752
2001,13130040.569933784
2183,72000.0
2320,259538257.78247107
2345,6327271.186908089
4186,4298454.810901746
4347,107156004.38256838
4408,206759686.19167546
4534,0.0
4559,0.0
4572,0.0
4614,236754006.04237683
4627,0.0
4696,557477.2557287661
2,1, 1, 1, 0,17, 0.00,60.00,Holiday
9,575562410.2275357
45,189733389.44400008
1207,189143078.4
1867,447811873.09438577
1903,17403336.0
1976,33772319.87046197
2001,12421052.338200309
2183,31008942.63134145
2320,363633680.4684037
2345,7905046.086682063
4186,4298454.810084192
4347,130788868.12619022
4408,301165146.7418634
4534,52497600.0
4559,0.0
4572,0.0
4614,399399594.4630443
4627,0.0
4696,978421.9191450827
2,1, 1, 1, 0,18, 0.00,60.00,Holiday
9,577779785.7640517
45,189733389.44400008
1207,189143078.4
1867,328522937.5495708
1903,17403336.0
1976,33738833.609375249
2001,12415338.088601666
2183,72000.0
2320,306529578.70397308
2345,6425083.116803206
4186,4298454.810854698
4347,107012001.94899023
4408,259189155.5236881
4534,78746400.0
4559,0.0
4572,0.0
4614,311047601.5495708
4627,0.0
4696,729577.8824597731
2,1, 1, 1, 0,19, 0.00,60.00,Holiday
9,610336954.281867
45,189733389.44400008
1207,189143078.4
1867,539721291.6061249
1903,17403336.0
1976,33699114.143564488
2001,12408560.176281754
2183,72000.0
2320,443896309.9076296
2345,8482893.055527557
4186,4298454.811344775
4347,138977583.3288419
4408,383082343.92294219
4534,78746400.0
4559,0.0
4572,0.0
4614,522245955.60612496
4627,0.0
4696,1327942.9327432723
2,1, 1, 1, 0,20, 0.00,60.00,Holiday
9,585092903.5537554
45,189733389.44400008
1207,189143078.4
1867,392777446.58790907
1903,17403336.0
1976,40262399.11349919
2001,13947235.96607355
2183,72000.0
2320,359051388.33262446
2345,6594599.517440314
4186,4298454.811241465
4347,112580817.71485594
4408,309305025.3716138
4534,78746400.0
4559,0.0
4572,0.0
4614,375302110.58790907
4627,0.0
4696,941982.0288258687
2,1, 1, 1, 0,21, 0.00,60.00,Holiday
9,613811016.6110474
45,189733389.44400008
1207,189143078.4
1867,574522984.1184926
1903,17403336.0
1976,39840885.53303312
2001,13848503.712851398
2183,72000.0
2320,474111117.183326
2345,8106156.176095444
4186,4298454.81099286
4347,140820989.22710488
4408,410665206.7578238
4534,78746400.0
4559,0.0
4572,0.0
4614,557047648.1184926
4627,0.0
4696,1518655.8270912045
2,1, 1, 1, 0,22, 0.00,60.00,Holiday
9,644652763.5930969
45,189733389.44400008
1207,189143078.4
1867,969690754.4911466
1903,17403336.0
1976,36194348.57812321
2001,13008740.40654932
2183,31009167.75434018
2320,633225988.5500531
2345,0.0
4186,4298454.811238014
4347,169781475.62679745
4408,603960929.5705087
4534,78746400.0
4559,0.0
4572,0.0
4614,921278250.7368064
4627,0.0
4696,4239679.715750039
2,1, 1, 1, 0,23, 0.00,60.00,Holiday
9,658427878.172527
45,189733389.44400008
1207,189143078.4
1867,1044612242.0144466
1903,17403336.0
1976,31248848.27433795
2001,11863361.22767787
2183,72000.0
2320,829663877.9221027
2345,0.0
4186,4298454.811348706
4347,181796186.32626
4408,783888009.9415228
4534,78746400.0
4559,0.0
4572,0.0
4614,1027136906.0144466
4627,0.0
4696,7145462.774588994
2,1, 1, 1, 0,24, 0.00,60.00,Holiday
9,677416477.8588432
45,189733389.44400008
1207,189143078.4
1867,870865235.5365377
1903,17403336.0
1976,34927764.78407298
2001,15429109.289558253
2183,72000.0
2320,697764826.5617814
2345,0.0
4186,4298454.811386651
4347,198223023.39141474
4408,667371917.940784
4534,78746400.0
4559,0.0
4572,0.0
4614,853389899.5365377
4627,0.0
4696,6141477.333870276
2,2, 1, 2, 0, 1, 0.00,60.00,Monday
9,689457506.2842418
45,189733389.44400008
1207,189143078.4
1867,1191047527.2749816
1903,17403336.0
1976,31153283.33902953
2001,11847187.673897248
2183,72000.0
2320,962658858.3969143
2345,0.0
4186,7178020.461066734
4347,208887603.415125
4408,907885079.320269
4534,78746400.0
4559,0.0
4572,0.0
4614,1173572191.2749813
4627,0.0
4696,11099847.351219498
2,2, 1, 2, 0, 2, 0.00,60.00,Monday
9,673551581.8028715
45,189733389.44400008
1207,189143078.4
1867,1027138625.5801069
1903,17403336.0
1976,31094861.71427474
2001,11837313.017217949
2183,31038939.603769363
2320,797659470.6053496
2345,0.0
4186,7178020.460721153
4347,194533982.18501333
4408,775647684.1404433
4534,78746400.0
4559,0.0
4572,0.0
4614,978696349.9763374
4627,0.0
4696,9557418.75664018
2,2, 1, 2, 0, 3, 0.00,60.00,Monday
9,691669323.0343771
45,189733389.44400008
1207,189143078.4
1867,1244254007.708612
1903,17403336.0
1976,31074105.009827876
2001,11833773.323101554
2183,72000.0
2320,1019268175.785969
2345,0.0
4186,7178020.461235705
4347,209217273.3490398
4408,965333826.7016364
4534,78746400.0
4559,0.0
4572,0.0
4614,1226778671.708612
4627,0.0
4696,12995408.51823565
2,2, 1, 2, 0, 4, 0.00,60.00,Monday
9,674039943.6919036
45,189733389.44400008
1207,189143078.4
1867,1013973122.4070265
1903,17403336.0
1976,31055376.69632916
2001,11830612.682355307
2183,72000.0
2320,811957257.4945874
2345,0.0
4186,7178020.4611488119
4347,194584555.93481914
4408,788050516.7948778
4534,78746400.0
4559,0.0
4572,0.0
4614,996497786.4070265
4627,0.0
4696,10001907.230729059
2,2, 1, 2, 0, 5, 0.00,60.00,Monday
9,691662158.7759467
45,189733389.44400008
1207,189143078.4
1867,1203048011.167413
1903,17403336.0
1976,37669801.57605204
2001,13377951.566132766
2183,31038874.24394054
2320,981224687.9102168
2345,0.0
4186,7178020.460757167
4347,209142068.83094675
4408,919583604.6433214
4534,78746400.0
4559,0.0
4572,0.0
4614,1154605800.9234725
4627,0.0
4696,11519270.534867177
2,2, 1, 2, 0, 6, 0.00,60.00,Monday
9,660936362.7204697
45,189733389.44400008
1207,189143078.4
1867,908181373.8796307
1903,17403336.0
1976,37304928.05778245
2001,13288811.242676054
2183,72000.0
2320,733913555.0623713
2345,0.0
4186,7178020.461267749
4347,182409837.43280296
4408,703456340.740765
4534,78746400.0
4559,0.0
4572,0.0
4614,890706037.8796307
4627,0.0
4696,7614846.200990709
2,2, 1, 2, 0, 7, 0.00,60.00,Monday
9,878341627.7573099
45,189733389.44400008
1207,191659478.4
1867,9864639940.836258
1903,17403336.0
1976,35316953.315941359
2001,12842100.142048907
2183,72000.0
2320,3091882519.141873
2345,19919271.3978524
4186,7178020.456807363
4347,370506628.63560637
4408,7737094497.070576
4534,78746400.0
4559,0.0
4572,0.0
4614,9847164604.836258
4627,0.0
4696,34853631.135654699
2,2, 1, 2, 0, 8, 0.00,60.00,Monday
9,1549886486.1385356
45,963113651.9999994
1207,191659478.4
1867,7766397772.358603
1903,17403336.0
1976,35463058.32553831
2001,13993901.646270058
2183,95165243.37290263
2320,1758561687.5994487
2345,36266241.75612728
4186,77348300.42670135
4347,325928070.2634673
4408,5988630478.252744
4534,26248800.0
4559,0.0
4572,0.0
4614,7653829192.985702
4627,0.0
4696,28942583.828798687
2,2, 1, 2, 0, 9, 0.00,60.00,Monday
9,1840409179.5423139
45,963113651.9999994
1207,524349514.9186813
1867,6365111109.163789
1903,130525020.0
1976,37239391.23362328
2001,14299282.08956771
2183,127889652.26462333
2320,727760660.9960381
2345,103014416.0423351
4186,101303897.53601933
4347,321479920.0983798
4408,4783246205.926179
4534,0.0
4559,69391.58442703523
4572,7870.091768413501
4614,6106696436.899166
4627,0.0
4696,17158940.343917155
2,2, 1, 2, 0,10, 0.00,60.00,Monday
9,1839529840.6331945
45,963113651.9999994
1207,524349514.9186813
1867,5938265508.603291
1903,130525020.0
1976,38598122.01147232
2001,14555857.235020083
2183,194223129.1238309
2320,481982085.7356867
2345,131005136.70079568
4186,138629329.46271498
4347,321262394.8364459
4408,4387609077.10629
4534,0.0
4559,63145.04529957412
4572,7472.186289538963
4614,5613517359.479459
4627,0.0
4696,16240949.456758054
2,2, 1, 2, 0,11, 0.00,60.00,Monday
9,1859402706.620814
45,963113651.9999994
1207,545953921.3186814
1867,5418597266.105553
1903,174033360.00000004
1976,39099275.88487823
2001,14712898.077624223
2183,162102941.572208
2320,288541284.749666
2345,154242792.62003643
4186,142935910.5056904
4347,321118518.72147318
4408,3985225408.571821
4534,0.0
4559,40232.8127466382
4572,4894.097491937211
4614,5082460964.533344
4627,0.0
4696,14498822.405543758
2,2, 1, 2, 0,12, 0.00,60.00,Monday
9,1857735857.7098413
45,963113651.9999994
1207,545953921.3186814
1867,4944942282.154238
1903,174033360.00000004
1976,43482019.93506263
2001,18431967.560541717
2183,195416523.34891746
2320,125963717.94676312
2345,277286864.1292501
4186,155857006.63410665
4347,321093213.8771312
4408,3605690660.1640985
4534,0.0
4559,0.0
4572,0.0
4614,4575492398.80532
4627,0.0
4696,9143102.953487363
2,2, 1, 2, 0,13, 0.00,60.00,Monday
9,1851335319.0013488
45,963113651.9999994
1207,545953921.3186814
1867,4785212230.211362
1903,174033360.00000004
1976,39427302.29748304
2001,14810774.242919859
2183,228724437.17850898
2320,71317535.94235046
2345,391866500.6894592
4186,165906253.20525665
4347,321093213.8771312
4408,3440051432.1502087
4534,0.0
4559,0.0
4572,0.0
4614,4382454433.032852
4627,0.0
4696,6363757.56261647
2,2, 1, 2, 0,14, 0.00,60.00,Monday
9,1829439597.1887274
45,963113651.9999994
1207,524349514.9186813
1867,4941471330.991745
1903,87016680.00000002
1976,40332582.082464877
2001,14880954.069191756
2183,196443589.68893723
2320,55088421.60088482
2345,392915293.37186518
4186,171648675.94133768
4347,321093213.8771312
4408,3638875149.2485535
4534,0.0
4559,0.0
4572,0.0
4614,4658011061.302808
4627,0.0
4696,6002262.323723346
2,2, 1, 2, 0,15, 0.00,60.00,Monday
9,1829651604.2688919
45,963113651.9999994
1207,524349514.9186813
1867,5177971601.41527
1903,87016680.00000002
1976,40423543.99662089
2001,14839606.078597967
2183,194309295.07465507
2320,53711584.59941016
2345,434384012.23258939
4186,140065247.342701
4347,321093213.8771312
4408,3824476929.015981
4534,0.0
4559,0.0
4572,0.0
4614,4896645626.340615
4627,0.0
4696,6255617.394481883
2,2, 1, 2, 0,16, 0.00,60.00,Monday
9,1800921227.1589843
45,963113651.9999994
1207,496207971.0593406
1867,4728974559.969826
1903,17403336.0
1976,39367203.9765448
2001,14676207.393351535
2183,162255557.49114952
2320,67476961.41527328
2345,616859558.0124319
4186,145807238.34437523
4347,321093213.8771312
4408,3560386583.269709
4534,0.0
4559,0.0
4572,0.0
4614,4549315666.478676
4627,0.0
4696,5830182.829161105
2,2, 1, 2, 0,17, 0.00,60.00,Monday
9,1844375017.8064614
45,963113651.9999994
1207,478868630.4
1867,4589099445.98598
1903,17403336.0
1976,34325757.93789735
2001,13863197.469297819
2183,160809954.258913
2320,108911494.90042752
2345,720002483.238938
4186,119342335.11094018
4347,321093213.8771312
4408,3395580254.5511386
4534,52497600.0
4559,0.0
4572,0.0
4614,4410886155.727066
4627,0.0
4696,14938724.06003268
2,2, 1, 2, 0,18, 0.00,60.00,Monday
9,1584011923.027612
45,963113651.9999994
1207,191659478.4
1867,5118081667.190868
1903,17403336.0
1976,34002939.337549287
2001,13769807.905066885
2183,160791468.4159199
2320,244863784.01354177
2345,520861882.7683243
4186,119342517.90086659
4347,321093213.8771312
4408,3874710455.0483429
4534,78746400.0
4559,0.0
4572,0.0
4614,4939886862.774949
4627,0.0
4696,15629370.84541475
2,2, 1, 2, 0,19, 0.00,60.00,Monday
9,1584016024.930102
45,963113651.9999994
1207,191659478.4
1867,5084442876.255023
1903,17403336.0
1976,34027084.924926299
2001,13781734.576703813
2183,161509158.33069835
2320,253223316.52287085
2345,521575774.5094451
4186,132262824.8981353
4347,321093213.8771312
4408,3838621069.4461195
4534,78746400.0
4559,0.0
4572,0.0
4614,4905530381.924324
4627,0.0
4696,15621546.076267818
2,2, 1, 2, 0,20, 0.00,60.00,Monday
9,1585408011.7383228
45,963113651.9999994
1207,191659478.4
1867,4738436593.2723259
1903,17403336.0
1976,40785146.2993955
2001,15407102.617940898
2183,31332164.200483759
2320,238218818.47413893
2345,506853657.03267589
4186,35890060.30701092
4347,321093213.8771312
4408,3671315542.0200335
4534,78746400.0
4559,0.0
4572,0.0
4614,4689701093.071841
4627,0.0
4696,15388164.84325128
2,2, 1, 2, 0,21, 0.00,60.00,Monday
9,1585268915.2359369
45,963113651.9999994
1207,191659478.4
1867,4631158525.85401
1903,17403336.0
1976,40445442.98172411
2001,15365538.991129673
2183,62503288.05765723
2320,243387811.50672166
2345,503936410.1980936
4186,31583255.77160376
4347,321093213.8771312
4408,3562860584.838829
4534,78746400.0
4559,0.0
4572,0.0
4614,4551251901.796352
4627,0.0
4696,15290631.967676619
2,2, 1, 2, 0,22, 0.00,60.00,Monday
9,493713910.2949834
45,189733389.44400008
1207,189143078.4
1867,52422658.28792291
1903,17403336.0
1976,36166854.993571478
2001,13146746.860922408
2183,31291907.752442566
2320,20432606.401884054
2345,10954661.465611298
4186,31583282.6794376
4347,22870945.469457237
4408,14091813.64636832
4534,78746400.0
4559,0.0
4572,0.0
4614,3727414.535480339
4627,0.0
4696,73350.12060370436
2,2, 1, 2, 0,23, 0.00,60.00,Monday
9,518698125.7273731
45,189733389.44400008
1207,189143078.4
1867,58511972.31844808
1903,17403336.0
1976,33548539.203085334
2001,12318410.45003362
2183,31142282.14333821
2320,44703197.72841985
2345,11649452.290238385
4186,17227249.047934165
4347,48658682.320500548
4408,27113717.25693343
4534,78746400.0
4559,0.0
4572,0.0
4614,9966354.175109869
4627,0.0
4696,98165.11283886423
2,2, 1, 2, 0,24, 0.00,60.00,Monday
9,545782115.5586641
45,189733389.44400008
1207,189143078.4
1867,50358764.7379164
1903,17403336.0
1976,38813529.54577766
2001,16145570.948158993
2183,72000.0
2320,86802093.10620255
2345,16641192.777021796
4186,12920436.721942425
4347,71813633.77952321
4408,62716701.86903039
4534,78746400.0
4559,0.0
4572,0.0
4614,32883428.737916404
4627,0.0
4696,200042.9869818072
2,3, 1, 3, 0, 1, 0.00,60.00,Tuesday
9,543469280.1248858
45,189733389.44400008
1207,189143078.4
1867,97502998.70602417
1903,17403336.0
1976,34163469.496961999
2001,12354993.768397306
2183,31038998.215037675
2320,101102939.96383843
2345,13050691.483285264
4186,7191685.515918509
4347,73313655.9702326
4408,70111842.1304401
4534,78746400.0
4559,0.0
4572,0.0
4614,49060664.49098649
4627,0.0
4696,177762.54225574944
2,3, 1, 3, 0, 2, 0.00,60.00,Tuesday
9,587267271.09933
45,189733389.44400008
1207,189143078.4
1867,122149927.92569718
1903,17403336.0
1976,34002041.7058754
2001,12327891.088884468
2183,72000.0
2320,173749266.56542898
2345,15500515.438302655
4186,7191685.515677478
4347,116993378.04829201
4408,118346956.23035044
4534,78746400.0
4559,0.0
4572,0.0
4614,104674591.92569718
4627,0.0
4696,323134.11815342408
2,3, 1, 3, 0, 3, 0.00,60.00,Tuesday
9,576101958.8788747
45,189733389.44400008
1207,189143078.4
1867,144865665.36685867
1903,17403336.0
1976,33861801.162227649
2001,12331270.512593871
2183,72000.0
2320,178334629.71373505
2345,11279447.01154663
4186,7191685.517071573
4347,105841530.3391459
4408,127554488.19622472
4534,78746400.0
4559,0.0
4572,0.0
4614,127390329.36685868
4627,0.0
4696,306290.18313482348
2,3, 1, 3, 0, 4, 0.00,60.00,Tuesday
9,594094929.8801632
45,189733389.44400008
1207,189143078.4
1867,246010814.57890079
1903,17403336.0
1976,33726269.243098948
2001,12300671.300915346
2183,72000.0
2320,251801585.2900493
2345,13463276.173890822
4186,7191685.516445262
4347,123635674.69918242
4408,194224028.07790346
4534,78746400.0
4559,0.0
4572,0.0
4614,228535478.57890079
4627,0.0
4696,535716.0360653886
2,3, 1, 3, 0, 5, 0.00,60.00,Tuesday
9,594128391.5032082
45,189733389.44400008
1207,189143078.4
1867,308831366.064601
1903,17403336.0
1976,66284758.65183675
2001,19917440.526688748
2183,31039109.682017987
2320,263844211.6952158
2345,10240612.406168109
4186,7191685.516193572
4347,116040221.05181018
4408,207893790.44869543
4534,78746400.0
4559,0.0
4572,0.0
4614,260388920.38258303
4627,0.0
4696,547862.0807091418
2,3, 1, 3, 0, 6, 0.00,60.00,Tuesday
9,609014545.3134618
45,189733389.44400008
1207,189143078.4
1867,446210456.6979196
1903,17403336.0
1976,60819372.7838309
2001,18650617.605244019
2183,72000.0
2320,378679181.1043593
2345,13366984.230181735
4186,7191685.517192449
4347,131742473.58989835
4408,323723878.48280367
4534,78746400.0
4559,0.0
4572,0.0
4614,428735120.6979196
4627,0.0
4696,998586.2743193931
2,3, 1, 3, 0, 7, 0.00,60.00,Tuesday
9,861053101.5198662
45,189733389.44400008
1207,191659478.4
1867,9794890674.721894
1903,17403336.0
1976,46894180.35832394
2001,15485819.35157935
2183,72000.0
2320,2540052688.5417969
2345,39684931.026481527
4186,7191685.511413016
4347,350816270.13884398
4408,7498130801.852759
4534,78746400.0
4559,0.0
4572,0.0
4614,9777415338.721894
4627,0.0
4696,34611744.18544296
2,3, 1, 3, 0, 8, 0.00,60.00,Tuesday
9,1536596583.4349886
45,963113651.9999994
1207,191659478.4
1867,7702085798.345015
1903,17403336.0
1976,35990941.32269456
2001,14083613.546311966
2183,113891085.69828737
2320,1188634515.4402338
2345,55663443.41881487
4186,77506079.09501301
4347,321355018.6000215
4408,5939063054.0663399
4534,26248800.0
4559,0.0
4572,0.0
4614,7570791376.646727
4627,0.0
4696,20136020.888655485
2,3, 1, 3, 0, 9, 0.00,60.00,Tuesday
9,1839285347.9955695
45,963113651.9999994
1207,524349514.9186813
1867,6835180884.732339
1903,130525020.0
1976,37623619.59006768
2001,14364419.351411008
2183,128964273.23415548
2320,368027774.30544599
2345,184857928.7014957
4186,101505546.64633343
4347,321123820.6888591
4408,5136256260.691853
4534,0.0
4559,0.0
4572,0.0
4614,6575691591.498182
4627,0.0
4696,16333941.036618585
2,3, 1, 3, 0,10, 0.00,60.00,Tuesday
9,1838983170.3885425
45,963113651.9999994
1207,524349514.9186813
1867,6783140993.622422
1903,130525020.0
1976,38700872.166774798
2001,14545386.803873744
2183,174031770.31336612
2320,246740542.52937065
2345,234683442.15067403
4186,138901596.4292062
4347,321093213.8771312
4408,5066374119.581337
4534,0.0
4559,0.0
4572,0.0
4614,6478584203.309057
4627,0.0
4696,15881402.788856462
2,3, 1, 3, 0,11, 0.00,60.00,Tuesday
9,1857544854.5344296
45,963113651.9999994
1207,545953921.3186814
1867,6526168525.085907
1903,174033360.00000004
1976,39032427.07113527
2001,14604625.859808229
2183,162088478.96537567
2320,159689559.3210903
2345,295128063.26385226
4186,143217443.44735305
4347,321093213.8771312
4408,4859449566.0827679
4534,0.0
4559,0.0
4572,0.0
4614,6190046686.120531
4627,0.0
4696,12779441.478808882
2,3, 1, 3, 0,12, 0.00,60.00,Tuesday
9,1857259612.3294814
45,963113651.9999994
1207,545953921.3186814
1867,6134902944.873301
1903,174033360.00000004
1976,43357182.97257273
2001,18345380.423970589
2183,196174865.46042473
2320,101833893.5593457
2345,450744065.85594847
4186,156162739.82427029
4347,321093213.8771312
4408,4529057867.682573
4534,0.0
4559,0.0
4572,0.0
4614,5764694719.412876
4627,0.0
4696,8753444.709698461
2,3, 1, 3, 0,13, 0.00,60.00,Tuesday
9,1851653426.8376566
45,963113651.9999994
1207,545953921.3186814
1867,5900834957.940782
1903,174033360.00000004
1976,39258282.98236423
2001,14649817.820348002
2183,227993304.83515687
2320,72380019.76001928
2345,527699078.8715763
4186,166231220.9361494
4347,321093213.8771312
4408,4308624891.717571
4534,0.0
4559,0.0
4572,0.0
4614,5498808293.105625
4627,0.0
4696,6842821.821496146
2,3, 1, 3, 0,14, 0.00,60.00,Tuesday
9,1829374989.734418
45,963113651.9999994
1207,524349514.9186813
1867,5745606059.055488
1903,87016680.00000002
1976,40039385.76058943
2001,14774672.016244505
2183,196498215.20160068
2320,56805217.8678856
2345,505899263.81018677
4186,171984554.77109493
4347,321093213.8771312
4408,4270647658.31876
4534,0.0
4559,0.0
4572,0.0
4614,5462091163.853888
4627,0.0
4696,6043936.92236105
2,3, 1, 3, 0,15, 0.00,60.00,Tuesday
9,1829162514.8960155
45,963113651.9999994
1207,524349514.9186813
1867,5706800494.6078209
1903,87016680.00000002
1976,39974384.625293079
2001,14760139.27741543
2183,194352104.58926154
2320,50473580.01798213
2345,533381837.55138316
4186,140340566.2937597
4347,321093213.8771312
4408,4237753449.588925
4534,0.0
4559,0.0
4572,0.0
4614,5425431710.01856
4627,0.0
4696,5845994.822787888
2,3, 1, 3, 0,16, 0.00,60.00,Tuesday
9,1800832050.9539133
45,963113651.9999994
1207,496207971.0593406
1867,5442704070.631386
1903,17403336.0
1976,38892489.42649056
2001,14576980.40619191
2183,194689102.46324573
2320,61351738.08227138
2345,695795853.4231216
4186,146094458.26498974
4347,321093213.8771312
4408,4085956425.086835
4534,0.0
4559,0.0
4572,0.0
4614,5230611632.16814
4627,0.0
4696,5840233.6112496
2,3, 1, 3, 0,17, 0.00,60.00,Tuesday
9,1844641515.390746
45,963113651.9999994
1207,478868630.4
1867,5374070696.307629
1903,17403336.0
1976,33677727.16356553
2001,13703033.498072852
2183,128673343.75571019
2320,86625755.90405473
2345,777329497.5965302
4186,119587804.88617756
4347,321093213.8771312
4408,4029717472.8606159
4534,52497600.0
4559,0.0
4572,0.0
4614,5227994016.551919
4627,0.0
4696,15365385.61554222
2,3, 1, 3, 0,18, 0.00,60.00,Tuesday
9,1584033493.588211
45,963113651.9999994
1207,191659478.4
1867,5781281909.5556759
1903,17403336.0
1976,33333749.848424864
2001,13644443.74089437
2183,160808113.25810573
2320,216067721.43128509
2345,541289275.9368413
4186,119587927.21444448
4347,321093213.8771312
4408,4391193339.907065
4534,78746400.0
4559,0.0
4572,0.0
4614,5603070460.297571
4627,0.0
4696,15776305.570186124
2,3, 1, 3, 0,19, 0.00,60.00,Tuesday
9,1584123389.84345
45,963113651.9999994
1207,191659478.4
1867,5834364865.758976
1903,17403336.0
1976,33320157.9154644
2001,13642092.035278902
2183,161511684.99628229
2320,247074056.07899786
2345,535020355.4465027
4186,132532756.40705455
4347,321093213.8771312
4408,4427270722.303271
4534,78746400.0
4559,0.0
4572,0.0
4614,5655449844.762693
4627,0.0
4696,15868553.531040699
2,3, 1, 3, 0,20, 0.00,60.00,Tuesday
9,1584054418.230406
45,963113651.9999994
1207,191659478.4
1867,5771844628.7652859
1903,17403336.0
1976,33384726.583284595
2001,13653275.97442392
2183,62592795.34050438
2320,259953558.9594359
2345,520090286.2277245
4186,35958381.28667099
4347,321093213.8771312
4408,4455350481.640921
4534,78746400.0
4559,0.0
4572,0.0
4614,5691848497.42478
4627,0.0
4696,15788397.978851483
2,3, 1, 3, 0,21, 0.00,60.00,Tuesday
9,1584074285.6351655
45,963113651.9999994
1207,191659478.4
1867,5784455348.779801
1903,17403336.0
1976,33425480.92310109
2001,13660567.929847833
2183,31289256.971427915
2320,288868380.7839121
2345,515682164.44136789
4186,31643369.82344857
4347,321093213.8771312
4408,4489543938.308944
4534,78746400.0
4559,0.0
4572,0.0
4614,5735762755.808373
4627,0.0
4696,15800973.428187237
2,3, 1, 3, 0,22, 0.00,60.00,Tuesday
9,515007291.0232066
45,189733389.44400008
1207,189143078.4
1867,68192344.68938637
1903,17403336.0
1976,30876947.861486958
2001,11788302.216754413
2183,31285920.089589716
2320,58990949.9352215
2345,19106498.637683765
4186,31643415.835170308
4347,45420149.41607295
4408,46619769.06503386
4534,78746400.0
4559,0.0
4572,0.0
4614,19503088.599796639
4627,0.0
4696,175971.5463791205
2,3, 1, 3, 0,23, 0.00,60.00,Tuesday
9,527510126.12040057
45,189733389.44400008
1207,189143078.4
1867,92160069.54607627
1903,17403336.0
1976,33244247.237471075
2001,12195234.05021657
2183,31143055.003334144
2320,88726206.89077136
2345,18777631.81142786