Program Version,EnergyPlus, Version 9.2.0-921312fa1d, YMD=2020.12.22 17:57
1,5,Environment Title[],Latitude[deg],Longitude[deg],Time Zone[],Elevation[m]
2,8,Day of Simulation[],Month[],Day of Month[],DST Indicator[1=yes 0=no],Hour[],StartMinute[],EndMinute[],DayType
3,5,Cumulative Day of Simulation[],Month[],Day of Month[],DST Indicator[1=yes 0=no],DayType  ! When Daily Report Variables Requested
4,2,Cumulative Days of Simulation[],Month[]  ! When Monthly Report Variables Requested
5,1,Cumulative Days of Simulation[] ! When Run Period Report Variables Requested
6,1,Calendar Year of Simulation[] ! When Annual Report Variables Requested
303,1,BULKSTORAGE,Zone Thermostat Heating Setpoint Temperature [C] !Hourly
304,1,BULKSTORAGE,Zone Thermostat Cooling Setpoint Temperature [C] !Hourly
343,1,FINESTORAGE,Zone Thermostat Heating Setpoint Temperature [C] !Hourly
344,1,FINESTORAGE,Zone Thermostat Cooling Setpoint Temperature [C] !Hourly
383,1,OFFICE,Zone Thermostat Heating Setpoint Temperature [C] !Hourly
384,1,OFFICE,Zone Thermostat Cooling Setpoint Temperature [C] !Hourly
9,1,Electricity:Facility [J] !Hourly
599,1,Heating:Electricity [J] !Hourly
659,1,Cooling:Electricity [J] !Hourly
45,1,InteriorLights:Electricity [J] !Hourly
621,1,ExteriorLights:Electricity [J] !Hourly
132,1,InteriorEquipment:Electricity [J] !Hourly
182,1,Fans:Electricity [J] !Hourly
562,1,Gas:Facility [J] !Hourly
586,1,Heating:Gas [J] !Hourly
255,1,Heating:EnergyTransfer [J] !Hourly
280,1,Cooling:EnergyTransfer [J] !Hourly
549,1,HeatingCoils:EnergyTransfer [J] !Hourly
646,1,CoolingCoils:EnergyTransfer [J] !Hourly
1385,1,FURNACE_PACU_CAV_1:1,Air System Total Heating Energy [J] !Hourly
1386,1,FURNACE_PACU_CAV_1:1,Air System Total Cooling Energy [J] !Hourly
1387,1,FURNACE_PACU_CAV_2:2,Air System Total Heating Energy [J] !Hourly
1388,1,FURNACE_PACU_CAV_2:2,Air System Total Cooling Energy [J] !Hourly
End of Data Dictionary
1,RUNPERIOD 1,  41.98, -87.92,  -6.00, 201.00
2,1, 1, 1, 0, 1, 0.00,60.00,Holiday
303,7.200000000000002
304,30.0
343,15.6
344,26.7
383,15.5
384,30.0
1385,33191039.81854
1386,0.0
1387,249825754.6653435
1388,0.0
9,74036122.56661453
45,19732408.546916885
132,3641758.8411547804
182,18539155.17854286
255,384101780.3179612
280,0.0
549,367507479.0737157
562,470147103.53039327
586,470147103.53039327
599,0.0
621,32122800.0
646,0.0
659,0.0
2,1, 1, 1, 0, 2, 0.00,60.00,Holiday
303,7.2
304,30.0
343,15.6
344,26.7
383,15.5
384,30.0
1385,30849608.031606217
1386,0.0
1387,235891682.24816779
1388,0.0
9,73013284.14631619
45,19732408.546916885
132,3641758.8411547804
182,17516316.758244538
255,414863804.68259236
280,0.0
549,398986053.008028
562,510575945.7608781
586,510575945.7608781
599,0.0
621,32122800.0
646,0.0
659,0.0
2,1, 1, 1, 0, 3, 0.00,60.00,Holiday
303,7.200000000000002
304,30.0
343,15.6
344,26.7
383,15.5
384,30.0
1385,42059570.69306777
1386,0.0
1387,327956385.61599668
1388,0.0
9,79213728.27939737
45,19732408.546916885
132,3641758.8411547804
182,23716760.891325706
255,531090607.22111728
280,0.0
549,510799906.30320289
562,653583783.3973379
586,653583783.3973379
599,0.0
621,32122800.0
646,0.0
659,0.0
2,1, 1, 1, 0, 4, 0.00,60.00,Holiday
303,7.2
304,30.0
343,15.6
344,26.7
383,15.5
384,30.0
1385,32891903.90916283
1386,0.0
1387,249791861.8374995
1388,0.0
9,73984065.43555518
45,19732408.546916885
132,3641758.8411547804
182,18487098.04748351
255,453840604.4596062
280,0.0
549,437102780.5281628
562,559381008.7204905
586,559381008.7204905
599,0.0
621,32122800.0
646,0.0
659,0.0
2,1, 1, 1, 0, 5, 0.00,60.00,Holiday
303,7.200000000000002
304,30.0
343,15.6
344,26.7
383,15.5
384,30.0
1385,42990953.22529096
1386,0.0
1387,335068797.52547267
1388,0.0
9,79700364.44135617
45,19732408.546916885
132,3641758.8411547804
182,24203397.0532845
255,550158989.4381425
280,0.0
549,529489438.4111429
562,677516202.4596775
586,677516202.4596775
599,0.0
621,32122800.0
646,0.0
659,0.0
2,1, 1, 1, 0, 6, 0.00,60.00,Holiday
303,7.2
304,30.0
343,15.6
344,26.7
383,15.5
384,30.0
1385,33095129.67723944
1386,0.0
1387,251587820.97158424
1388,0.0
9,74111822.99337888
45,19732408.546916885
132,3641758.8411547804
182,18614855.605307219
255,459300662.2679279
280,0.0
549,442452727.9966317
562,566233692.8264403
586,566233692.8264403
599,0.0
621,32122800.0
646,0.0
659,0.0
2,1, 1, 1, 0, 7, 0.00,60.00,Holiday
303,7.200000000000002
304,30.0
343,15.6
344,26.7
383,15.5
384,30.0
1385,43105820.541861597
1386,0.0
1387,336263077.0408079
1388,0.0
9,79786066.17558311
45,19732408.546916885
132,3641758.8411547804
182,24289098.787511454
255,553614105.8906996
280,0.0
549,532870704.19562068
562,681847641.2818437
586,681847641.2818437
599,0.0
621,32122800.0
646,0.0
659,0.0
2,1, 1, 1, 0, 8, 0.00,60.00,Holiday
303,7.2
304,30.0
343,15.6
344,26.7
383,15.5
384,30.0
1385,32739454.515133099
1386,0.0
1387,251738733.51074297
1388,0.0
9,52692108.16999665
45,19732408.546916885
132,3641758.8411547804
182,18610340.781924994
255,458343950.52409669
280,0.0
549,441507383.21302148
562,565032603.3389216
586,565032603.3389216
599,0.0
621,10707600.0
646,0.0
659,0.0
2,1, 1, 1, 0, 9, 0.00,60.00,Holiday
303,7.200000000000002
304,30.0
343,15.6
344,26.7
383,15.5
384,30.0
1385,38469392.658034849
1386,0.0
1387,324483138.4242644
1388,0.0
9,46730025.39894427
45,19732408.546916885
132,3641758.8411547804
182,23355858.01087261
255,523817517.9470526
280,0.0
549,503852711.0565935
562,644787056.406141
586,644787056.406141
599,0.0
621,0.0
646,0.0
659,0.0
2,1, 1, 1, 0,10, 0.00,60.00,Holiday
303,7.2
304,30.0
343,15.6
344,26.7
383,15.5
384,30.0
1385,26473338.642443643
1386,0.0
1387,226043144.11942549
1388,0.0
9,40092005.67101984
45,19732408.546916885
132,3641758.8411547804
182,16717838.282948174
255,386862964.72457769
280,0.0
549,371750857.40127369
562,475793032.5251201
586,475793032.5251201
599,0.0
621,0.0
646,0.0
659,0.0
2,1, 1, 1, 0,11, 0.00,60.00,Holiday
303,7.200000000000002
304,30.0
343,15.6
344,26.7
383,15.5
384,30.0
1385,30307137.520360244
1386,0.0
1387,273769276.39780846
1388,0.0
9,43230602.63838864
45,19732408.546916885
132,3641758.8411547804
182,19856435.25031699
255,400398548.99070999
280,0.0
549,383424550.9433983
562,490641912.8873818
586,490641912.8873818
599,0.0
621,0.0
646,0.0
659,0.0
2,1, 1, 1, 0,12, 0.00,60.00,Holiday
303,7.2
304,30.0
343,15.6
344,26.7
383,15.5
384,30.0
1385,20863149.373856576
1386,0.0
1387,182399959.42278213
1388,0.0
9,37086956.161777477
45,19732408.546916885
132,3641758.8411547804
182,13712788.773705814
255,267084725.75122658
280,0.0
549,254607342.33568136
562,325780826.4875773
586,325780826.4875773
599,0.0
621,0.0
646,0.0
659,0.0
2,1, 1, 1, 0,13, 0.00,60.00,Holiday
303,7.200000000000002
304,30.0
343,15.6
344,26.7
383,15.5
384,30.0
1385,26684263.2012975
1386,0.0
1387,223709093.50617216
1388,0.0
9,39938224.58140221
45,19732408.546916885
132,3641758.8411547804
182,16564057.19333055
255,289158865.5285735
280,0.0
549,274951355.83301827
562,351684648.79073569
586,351684648.79073569
599,0.0
621,0.0
646,0.0
659,0.0
2,1, 1, 1, 0,14, 0.00,60.00,Holiday
303,7.2
304,30.0
343,15.6
344,26.7
383,15.5
384,30.0
1385,20486487.02806182
1386,0.0
1387,157793914.63436274
1388,0.0
9,35505655.83637935
45,19732408.546916885
132,3641758.8411547804
182,12131488.44830769
255,202790321.00301037
280,0.0
549,191765249.7587354
562,245225574.7779922
586,245225574.7779922
599,0.0
621,0.0
646,0.0
659,0.0
2,1, 1, 1, 0,15, 0.00,60.00,Holiday
303,7.200000000000002
304,30.0
343,15.6
344,26.7
383,15.5
384,30.0
1385,26238477.013159418
1386,0.0
1387,208991002.40674166
1388,0.0
9,38992572.89296352
45,19732408.546916885
132,3641758.8411547804
182,15618405.50489186
255,250455358.1629932
280,0.0
549,236959643.92069597
562,302990976.0886061
586,302990976.0886061
599,0.0
621,0.0
646,0.0
659,0.0
2,1, 1, 1, 0,16, 0.00,60.00,Holiday
303,7.2
304,30.0
343,15.6
344,26.7
383,15.5
384,30.0
1385,20815330.809150828
1386,0.0
1387,158215132.58774743
1388,0.0
9,35544774.96888654
45,19732408.546916885
132,3641758.8411547804
182,12170607.580814876
255,194747635.41614978
280,0.0
549,183673703.8800322
562,234841728.60043476
586,234841728.60043476
599,0.0
621,0.0
646,0.0
659,0.0
2,1, 1, 1, 0,17, 0.00,60.00,Holiday
303,7.200000000000002
304,30.0
343,15.6
344,26.7
383,15.5
384,30.0
1385,28177107.515339346
1386,0.0
1387,220673174.7502768
1388,0.0
9,61224147.37064623
45,19732408.546916885
132,3641758.8411547804
182,16434779.982574568
255,267860807.81488899
280,0.0
549,253787137.604266
562,324505323.81523159
586,324505323.81523159
599,0.0
621,21415200.0
646,0.0
659,0.0
2,1, 1, 1, 0,18, 0.00,60.00,Holiday
303,7.2
304,30.0
343,15.6
344,26.7
383,15.5
384,30.0
1385,22570007.54812926
1386,0.0
1387,170541811.98385854
1388,0.0
9,68524638.28663965
45,19732408.546916885
132,3641758.8411547804
182,13027670.898567984
255,223824091.866427
280,0.0
549,212021341.99884699
562,271131125.0532929
586,271131125.0532929
599,0.0
621,32122800.0
646,0.0
659,0.0
2,1, 1, 1, 0,19, 0.00,60.00,Holiday
303,7.200000000000002
304,30.0
343,15.6
344,26.7
383,15.5
384,30.0
1385,30149511.46531803
1386,0.0
1387,238078736.2776733
1388,0.0
9,73108532.89664963
45,19732408.546916885
132,3641758.8411547804
182,17611565.50857796
255,309900095.80017229
280,0.0
549,294791436.59707507
562,377014541.61958137
586,377014541.61958137
599,0.0
621,32122800.0
646,0.0
659,0.0
2,1, 1, 1, 0,20, 0.00,60.00,Holiday
303,7.2
304,30.0
343,15.6
344,26.7
383,15.5
384,30.0
1385,23535118.462738918
1386,0.0
1387,180213563.99348367
1388,0.0
9,69176724.86453328
45,19732408.546916885
132,3641758.8411547804
182,13679757.476461614
255,249064248.21236594
280,0.0
549,236657712.4843002
562,302686663.0967175
586,302686663.0967175
599,0.0
621,32122800.0
646,0.0
659,0.0
2,1, 1, 1, 0,21, 0.00,60.00,Holiday
303,7.200000000000002
304,30.0
343,15.6
344,26.7
383,15.5
384,30.0
1385,30307942.798321297
1386,0.0
1387,241471297.13837034
1388,0.0
9,73322703.62334064
45,19732408.546916885
132,3641758.8411547804
182,17825736.235268978
255,316265327.8087193
280,0.0
549,300974390.3762259
562,384936554.16877058
586,384936554.16877058
599,0.0
621,32122800.0
646,0.0
659,0.0
2,1, 1, 1, 0,22, 0.00,60.00,Holiday
303,7.2
304,30.0
343,15.6
344,26.7
383,15.5
384,30.0
1385,23489569.267601126
1386,0.0
1387,179120672.89662833
1388,0.0
9,69102707.1075672
45,19732408.546916885
132,3641758.8411547804
182,13605739.719495539
255,248160042.74256975
280,0.0
549,235824368.57289953
562,301619668.2126321
586,301619668.2126321
599,0.0
621,32122800.0
646,0.0
659,0.0
2,1, 1, 1, 0,23, 0.00,60.00,Holiday
303,7.200000000000002
304,30.0
343,15.6
344,26.7
383,15.5
384,30.0
1385,30477027.322509469
1386,0.0
1387,242158743.85487128
1388,0.0
9,73370339.34708643
45,19732408.546916885
132,3641758.8411547804
182,17873371.959014764
255,318429290.80648359
280,0.0
549,303100264.223705
562,387656855.9825477
586,387656855.9825477
599,0.0
621,32122800.0
646,0.0
659,0.0
2,1, 1, 1, 0,24, 0.00,60.00,Holiday
303,7.2
304,30.0
343,15.6
344,26.7
383,15.5
384,30.0
1385,24050659.13394649
1386,0.0
1387,183303248.76535309
1388,0.0
9,69391098.42137246
45,19732408.546916885
132,3641758.8411547804
182,13894131.033300799
255,257776594.59243036
280,0.0
549,245176293.1900161
562,313592134.2218109
586,313592134.2218109
599,0.0
621,32122800.0
646,0.0
659,0.0
2,2, 1, 2, 0, 1, 0.00,60.00,Monday
303,7.200000000000002
304,30.0
343,15.6
344,26.7
383,15.5
384,30.0
1385,32362956.000083239
1386,0.0
1387,255087117.86438594
1388,0.0
9,74263953.61090136
45,19732408.546916885
132,3641758.8411547804
182,18766986.222829697
255,350067250.26932737
280,0.0
549,333954475.3030629
562,427155788.4934857
586,427155788.4934857
599,0.0
621,32122800.0
646,0.0
659,0.0
2,2, 1, 2, 0, 2, 0.00,60.00,Monday
303,7.2
304,30.0
343,15.6
344,26.7
383,15.5
384,30.0
1385,25797882.32814116
1386,0.0
1387,196411139.7071951
1388,0.0
9,70296984.19469069
45,19732408.546916885
132,3641758.8411547804
182,14800016.806619015
255,294093679.03691968
280,0.0
549,280669470.9549673
562,359042707.17132499
586,359042707.17132499
599,0.0
621,32122800.0
646,0.0
659,0.0
2,2, 1, 2, 0, 3, 0.00,60.00,Monday
303,7.200000000000002
304,30.0
343,15.6
344,26.7
383,15.5
384,30.0
1385,33672501.00119345
1386,0.0
1387,265528110.34176807
1388,0.0
9,74970371.41713262
45,19732408.546916885
132,3641758.8411547804
182,19473404.029060954
255,373070869.5017893
280,0.0
549,356365393.9993757
562,455847636.42224088
586,455847636.42224088
599,0.0
621,32122800.0
646,0.0
659,0.0
2,2, 1, 2, 0, 4, 0.00,60.00,Monday
303,7.2
304,30.0
343,15.6
344,26.7
383,15.5
384,30.0
1385,26128879.287487158
1386,0.0
1387,198985692.11155594
1388,0.0
9,70474926.81611859
45,19732408.546916885
132,3641758.8411547804
182,14977959.428046927
255,301760952.7115518
280,0.0
549,288179391.77555909
562,368660675.44576337
586,368660675.44576337
599,0.0
621,32122800.0
646,0.0
659,0.0
2,2, 1, 2, 0, 5, 0.00,60.00,Monday
303,7.200000000000002
304,30.0
343,15.6
344,26.7
383,15.5
384,30.0
1385,32989687.536391226
1386,0.0
1387,261330387.14182086
1388,0.0
9,74675096.47970316
45,19732408.546916885
132,3641758.8411547804
182,19178129.09163149
255,361569982.8282616
280,0.0
549,345143724.1656159
562,441481788.416536
586,441481788.416536
599,0.0
621,32122800.0
646,0.0
659,0.0
2,2, 1, 2, 0, 6, 0.00,60.00,Monday
303,7.2
304,30.0
343,15.6
344,26.7
383,15.5
384,30.0
1385,24763854.802758628
1386,0.0
1387,189065219.55768479
1388,0.0
9,69787123.74957372
45,19732408.546916885
132,3641758.8411547804
182,14290156.361502065
255,273644702.06340506
280,0.0
549,260696058.0532578
562,333467430.147637
586,333467430.147637
599,0.0
621,32122800.0
646,0.0
659,0.0
2,2, 1, 2, 0, 7, 0.00,60.00,Monday
303,7.2
304,30.0
343,15.6
344,26.7
383,21.0
384,30.0
1385,92488736.70106222
1386,0.0
1387,287228554.69078829
1388,0.0
9,96041573.28996663
45,19732408.546916885
132,3641758.8411547804
182,40544605.90189497
255,402195959.6487045
280,0.0
549,392896963.01520559
562,500917614.2168214
586,500917614.2168214
599,0.0
621,32122800.0
646,0.0
659,0.0
2,2, 1, 2, 0, 8, 0.00,60.00,Monday
303,7.2
304,24.0
343,15.6
344,26.7
383,21.0
384,24.0
1385,74814197.43562857
1386,0.0
1387,239132203.4158563
1388,0.0
9,148390634.29533644
45,78929634.18766754
132,18208794.2057739
182,40544605.90189497
255,311673404.70246377
280,0.0
549,299863380.453677
562,382210282.06311288
586,382210282.06311288
599,0.0
621,10707600.0
646,0.0
659,0.0
2,2, 1, 2, 0, 9, 0.00,60.00,Monday
303,7.2
304,24.0
343,15.6
344,26.7
383,21.0
384,24.0
1385,64987646.85225785
1386,0.0
1387,213442048.52587617
1388,0.0
9,206907488.95853413
45,138126859.82841818
132,29134070.729238243
182,39646558.40087774
255,250839679.86093686
280,0.0
549,239336705.69490189
562,304926934.63466307
586,304926934.63466307
599,0.0
621,0.0
646,0.0
659,0.0
2,2, 1, 2, 0,10, 0.00,60.00,Monday
303,7.2
304,24.0
343,15.6
344,26.7
383,21.0
384,24.0
1385,58120958.07700974
1386,0.0
1387,185765807.8980328
1388,0.0
9,249923742.70174838
45,177591676.9222519
132,32775829.57039302
182,39556236.2091035
255,216760879.2066502
280,0.0
549,204419817.07437036
562,260381778.99216265
586,260381778.99216265
599,0.0
621,0.0
646,0.0
659,0.0
2,2, 1, 2, 0,11, 0.00,60.00,Monday
303,7.2
304,24.0
343,15.6
344,26.7
383,21.0
384,24.0
1385,53895862.00820064
1386,0.0
1387,163989466.34216468
1388,0.0
9,250057673.66439218
45,177591676.9222519
132,32775829.57039302
182,39690167.17174732
255,192277953.96958084
280,0.0
549,178418379.44969488
562,227182022.29606617
586,227182022.29606617
599,0.0
621,0.0
646,0.0
659,0.0
2,2, 1, 2, 0,12, 0.00,60.00,Monday
303,7.2
304,24.0
343,15.6
344,26.7
383,21.0
384,24.0
1385,50385288.095379557
1386,0.0
1387,146369974.72922618
1388,0.0
9,250102317.3186068
45,177591676.9222519
132,32775829.57039302
182,39734810.825961928
255,171926039.93559126
280,0.0
549,157288313.92393408
562,200204713.09357865
586,200204713.09357865
599,0.0
621,0.0
646,0.0
659,0.0
2,2, 1, 2, 0,13, 0.00,60.00,Monday
303,7.2
304,24.0
343,15.6
344,26.7
383,21.0
384,24.0
1385,49202709.91866131
1386,0.0
1387,136360932.2648893
1388,0.0
9,226728149.93053524
45,157859268.37533508
132,29134070.729238243
182,39734810.825961928
255,160728054.4803639
280,0.0
549,146096693.282879
562,185894384.64917205
586,185894384.64917205
599,0.0
621,0.0
646,0.0
659,0.0
2,2, 1, 2, 0,14, 0.00,60.00,Monday
303,7.2
304,24.0
343,15.6
344,26.7
383,21.0
384,24.0
1385,47220060.391990218
1386,0.0
1387,130058703.55307843
1388,0.0
9,250102317.3186068
45,177591676.9222519
132,32775829.57039302
182,39734810.825961928
255,150726291.2831739
280,0.0
549,137811815.0443972
562,175336292.34107594
586,175336292.34107594
599,0.0
621,0.0
646,0.0
659,0.0
2,2, 1, 2, 0,15, 0.00,60.00,Monday
303,7.2
304,24.0
343,15.6
344,26.7
383,21.0
384,24.0
1385,47594463.6590774
1386,0.0
1387,139012731.3768219
1388,0.0
9,250102317.3186068
45,177591676.9222519
132,32775829.57039302
182,39734810.825961928
255,158237361.54953338
280,0.0
549,147140246.1352268
562,187283819.27588669
586,187283819.27588669
599,0.0
621,0.0
646,0.0
659,0.0
2,2, 1, 2, 0,16, 0.00,60.00,Monday
303,7.2
304,24.0
343,15.6
344,26.7
383,21.0
384,24.0
1385,47825927.18911228
1386,0.0
1387,145713309.25932396
1388,0.0
9,250102317.3186068
45,177591676.9222519
132,32775829.57039302
182,39734810.825961928
255,165937078.95626617
280,0.0
549,154072287.5477642
562,196163633.15317715
586,196163633.15317715
599,0.0
621,0.0
646,0.0
659,0.0
2,2, 1, 2, 0,17, 0.00,60.00,Monday
303,7.2
304,24.0
343,15.6
344,26.7
383,21.0
384,24.0
1385,48925483.10119815
1386,0.0
1387,153635211.73645566
1388,0.0
9,271517517.3186068
45,177591676.9222519
132,32775829.57039302
182,39734810.825961928
255,175807192.43584544
280,0.0
549,163093745.93698208
562,207694363.27037678
586,207694363.27037678
599,0.0
621,21415200.0
646,0.0
659,0.0
2,2, 1, 2, 0,18, 0.00,60.00,Monday
303,7.200000000000002
304,30.0
343,15.6
344,26.7
383,15.5
384,30.0
1385,5258717.716357394
1386,0.0
1387,154786495.7936991
1388,0.0
9,116035653.57279893
45,59197225.640750627
132,14567035.364619121
182,10148592.56742917
255,158954200.47503684
280,0.0
549,149896620.94262887
562,192014129.7053854
586,192014129.7053854
599,0.0
621,32122800.0
646,0.0
659,0.0
2,2, 1, 2, 0,19, 0.00,60.00,Monday
303,7.2
304,30.0
343,15.6
344,26.7
383,15.5
384,30.0
1385,13101976.184155012
1386,0.0
1387,143660182.7816993
1388,0.0
9,65291301.131728749
45,19732408.546916885
132,3641758.8411547804
182,9794333.74365709
255,155864797.46117283
280,0.0
549,146967825.2222009
562,188019097.73275817
586,188019097.73275817
599,0.0
621,32122800.0
646,0.0
659,0.0
2,2, 1, 2, 0,20, 0.00,60.00,Monday
303,7.200000000000002
304,30.0
343,15.6
344,26.7
383,15.5
384,30.0
1385,17042987.216096227
1386,0.0
1387,197033676.6633357
1388,0.0
9,68831787.9094582
45,19732408.546916885
132,3641758.8411547804
182,13334820.52138655
255,212473189.7662171
280,0.0
549,200741843.35804779
562,256839470.30944208
586,256839470.30944208
599,0.0
621,32122800.0
646,0.0
659,0.0
2,2, 1, 2, 0,21, 0.00,60.00,Monday
303,7.2
304,30.0
343,15.6
344,26.7
383,15.5
384,30.0
1385,16151397.42171803
1386,0.0
1387,146352227.10113026
1388,0.0
9,65596035.054922018
45,19732408.546916885
132,3641758.8411547804
182,10099067.666850349
255,161489274.27518735
280,0.0
549,152404556.8560006
562,194895891.23673836
586,194895891.23673836
599,0.0
621,32122800.0
646,0.0
659,0.0
2,2, 1, 2, 0,22, 0.00,60.00,Monday
303,7.200000000000002
304,30.0
343,15.6
344,26.7
383,15.5
384,30.0
1385,18979393.917583053
1386,0.0
1387,195038976.61377377
1388,0.0
9,68789277.04583137
45,19732408.546916885
132,3641758.8411547804
182,13292309.65775971
255,212410929.8443294
280,0.0
549,200726060.8736001
562,256759942.32513706
586,256759942.32513706
599,0.0
621,32122800.0
646,0.0
659,0.0
2,2, 1, 2, 0,23, 0.00,60.00,Monday
303,7.2
304,30.0
343,15.6
344,26.7
383,15.5
384,30.0
1385,17665304.011975554
1386,0.0
1387,146931080.9640454
1388,0.0
9,65699291.60870192
45,19732408.546916885
132,3641758.8411547804
182,10202324.220630266
255,163536902.3287134
280,0.0
549,154394060.75539176
562,197400180.4593131
586,197400180.4593131
599,0.0
621,32122800.0
646,0.0
659,0.0
2,2, 1, 2, 0,24, 0.00,60.00,Monday
303,7.200000000000002
304,30.0
343,15.6
344,26.7
383,15.5
384,30.0
1385,21747415.65666171
1386,0.0
1387,205834042.82435218
1388,0.0
9,69589971.1031398
45,19732408.546916885
132,3641758.8411547804
182,14093003.715068136
255,225794889.2367878
280,0.0
549,213488454.76594783
562,273037227.15482917
586,273037227.15482917
599,0.0
621,32122800.0
646,0.0
659,0.0
2,3, 1, 3, 0, 1, 0.00,60.00,Tuesday
303,7.2
304,30.0
343,15.6
344,26.7
383,15.5
384,30.0
1385,19801540.766465304
1386,0.0
1387,156983239.57369916
1388,0.0
9,66430272.6491261
45,19732408.546916885
132,3641758.8411547804
182,10933305.261054447
255,175539455.97522349
280,0.0
549,165851475.0791125
562,212023760.2262388
586,212023760.2262388
599,0.0
621,32122800.0
646,0.0
659,0.0
2,3, 1, 3, 0, 2, 0.00,60.00,Tuesday
303,7.200000000000002
304,30.0
343,15.6
344,26.7
383,15.5
384,30.0
1385,23736778.569182546
1386,0.0
1387,214701326.049586
1388,0.0
9,70234160.88416992
45,19732408.546916885
132,3641758.8411547804
182,14737193.496098273
255,236478302.36183516
280,0.0
549,223700911.12267293
562,286069204.3364271
586,286069204.3364271
599,0.0
621,32122800.0
646,0.0
659,0.0
2,3, 1, 3, 0, 3, 0.00,60.00,Tuesday
303,7.2
304,30.0
343,15.6
344,26.7
383,15.5
384,30.0
1385,20848167.661072814
1386,0.0
1387,160610563.34809879
1388,0.0
9,67245094.28207459
45,19732408.546916885
132,3641758.8411547804
182,11748126.894002928
255,180659949.12284059
280,0.0
549,170249432.61578227
562,217630118.92978264
586,217630118.92978264
599,0.0
621,32122800.0
646,0.0
659,0.0
2,3, 1, 3, 0, 4, 0.00,60.00,Tuesday
303,7.200000000000002
304,30.0
343,15.6
344,26.7
383,15.5
384,30.0
1385,24806371.27382374
1386,0.0
1387,217109460.81633763
1388,0.0
9,71439637.94555584
45,19732408.546916885
132,3641758.8411547804
182,15942670.557484178
255,242671280.6568833
280,0.0
549,228739022.97561268
562,292495570.473848
586,292495570.473848
599,0.0
621,32122800.0
646,0.0
659,0.0
2,3, 1, 3, 0, 5, 0.00,60.00,Tuesday
303,7.2
304,30.0
343,15.6
344,26.7
383,15.5
384,30.0
1385,22070993.77905252
1386,0.0
1387,164999656.4410675
1388,0.0
9,68119084.56452339
45,19732408.546916885
132,3641758.8411547804
182,12622117.176451724
255,196367189.9707174
280,0.0
549,185168632.68718524
562,236719854.7791846
586,236719854.7791846
599,0.0
621,32122800.0
646,0.0
659,0.0
2,3, 1, 3, 0, 6, 0.00,60.00,Tuesday
303,7.200000000000002
304,30.0
343,15.6
344,26.7
383,15.5
384,30.0
1385,27130946.85570757
1386,0.0
1387,230807995.04864613
1388,0.0
9,72480314.96360219
45,19732408.546916885
132,3641758.8411547804
182,16983347.575530538
255,278441404.5281361
280,0.0
549,263633939.62224583
562,337161463.084821
586,337161463.084821
599,0.0
621,32122800.0
646,0.0
659,0.0
2,3, 1, 3, 0, 7, 0.00,60.00,Tuesday
303,7.2
304,30.0
343,15.6
344,26.7
383,21.0
384,30.0
1385,91461871.34430112
1386,0.0
1387,259553155.52689589
1388,0.0
9,96041573.28996663
45,19732408.546916885
132,3641758.8411547804
182,40544605.90189497
255,354174034.3732092
280,0.0
549,347075659.7172669
562,442205265.9296169
586,442205265.9296169
599,0.0
621,32122800.0
646,0.0
659,0.0
2,3, 1, 3, 0, 8, 0.00,60.00,Tuesday
303,7.2
304,24.0
343,15.6
344,26.7
383,21.0
384,24.0
1385,74284739.88848192
1386,0.0
1387,249319370.12005244
1388,0.0
9,148390634.29533644
45,78929634.18766754
132,18208794.2057739
182,40544605.90189497
255,314223396.3838351
280,0.0
549,306985835.7882655
562,391358604.84935286
586,391358604.84935286
599,0.0
621,10707600.0
646,0.0
659,0.0
2,3, 1, 3, 0, 9, 0.00,60.00,Tuesday
303,7.2
304,24.0
343,15.6
344,26.7
383,21.0
384,24.0
1385,66152264.02357577
1386,0.0
1387,234168409.79639218
1388,0.0
9,207805536.4595514
45,138126859.82841818
132,29134070.729238243
182,40544605.90189497
255,273879823.1551234
280,0.0
549,267733260.10119314
562,341295446.143648
586,341295446.143648
599,0.0
621,0.0
646,0.0
659,0.0
2,3, 1, 3, 0,10, 0.00,60.00,Tuesday
303,7.2
304,24.0
343,15.6
344,26.7
383,21.0
384,24.0
1385,60897144.56134147
1386,0.0
1387,218017720.21512575
1388,0.0
9,249834455.3933192
45,177591676.9222519
132,32775829.57039302
182,39466948.90067429
255,243737261.27358902
280,0.0
549,239447915.87579499
562,305200617.6323118
586,305200617.6323118
599,0.0
621,0.0
646,0.0
659,0.0
2,3, 1, 3, 0,11, 0.00,60.00,Tuesday
303,7.2
304,24.0
343,15.6
344,26.7
383,21.0
384,24.0
1385,57617200.825524438
1386,0.0
1387,202833942.21516363
1388,0.0
9,249834455.3933192
45,177591676.9222519
132,32775829.57039302
182,39466948.90067429
255,225765495.8501634
280,0.0
549,220984194.14001356
562,281634305.91130408
586,281634305.91130408
599,0.0
621,0.0
646,0.0
659,0.0
2,3, 1, 3, 0,12, 0.00,60.00,Tuesday
303,7.2
304,24.0
343,15.6
344,26.7
383,21.0
384,24.0
1385,55061653.34507087
1386,0.0
1387,187810464.20557115
1388,0.0
9,249923742.70174844
45,177591676.9222519
132,32775829.57039302
182,39556236.2091035
255,209127781.39914585
280,0.0
549,203405168.64996938
562,259179002.3176722
586,259179002.3176722
599,0.0
621,0.0
646,0.0
659,0.0
2,3, 1, 3, 0,13, 0.00,60.00,Tuesday
303,7.2
304,24.0
343,15.6
344,26.7
383,21.0
384,24.0
1385,54254332.57585054
1386,0.0
1387,179489386.16954453
1388,0.0
9,226594218.9678914
45,157859268.37533508
132,29134070.729238243
182,39600879.86331811
255,200916962.00370113
280,0.0
549,194276769.8447218
562,247501802.59200938
586,247501802.59200938
599,0.0
621,0.0
646,0.0
659,0.0
2,3, 1, 3, 0,14, 0.00,60.00,Tuesday
303,7.2
304,24.0
343,15.6
344,26.7
383,21.0
384,24.0
1385,51396221.44195969
1386,0.0
1387,169543812.41689108
1388,0.0
9,250057673.66439218
45,177591676.9222519
132,32775829.57039302
182,39690167.17174732
255,188468079.49264894
280,0.0
549,181473084.95817817
562,231178428.09432174
586,231178428.09432174
599,0.0
621,0.0
646,0.0
659,0.0
2,3, 1, 3, 0,15, 0.00,60.00,Tuesday
303,7.2
304,24.0
343,15.6
344,26.7
383,21.0
384,24.0
1385,50627338.51901156
1386,0.0
1387,169598528.85998056
1388,0.0
9,250102317.3186068
45,177591676.9222519
132,32775829.57039302
182,39734810.825961928
255,187753781.505314
280,0.0
549,180758918.4783196
562,230287473.7266488
586,230287473.7266488
599,0.0
621,0.0
646,0.0
659,0.0
2,3, 1, 3, 0,16, 0.00,60.00,Tuesday
303,7.2
304,24.0
343,15.6
344,26.7
383,21.0
384,24.0
1385,50577825.244431767
1386,0.0
1387,173454159.23474754
1388,0.0
9,250102317.3186068
45,177591676.9222519
132,32775829.57039302
182,39734810.825961928
255,191559764.05740557
280,0.0
549,184565035.5785069
562,235168697.99851007
586,235168697.99851007
599,0.0
621,0.0
646,0.0
659,0.0
2,3, 1, 3, 0,17, 0.00,60.00,Tuesday
303,7.2
304,24.0
343,15.6
344,26.7
383,21.0
384,24.0
1385,52299991.08800566
1386,0.0
1387,183535327.2294343
1388,0.0
9,271472873.66439226
45,177591676.9222519
132,32775829.57039302
182,39690167.17174732
255,203357269.53505943
280,0.0
549,196368369.41676397
562,250245979.6551354
586,250245979.6551354
599,0.0
621,21415200.0
646,0.0
659,0.0
2,3, 1, 3, 0,18, 0.00,60.00,Tuesday
303,7.200000000000002
304,30.0
343,15.6
344,26.7
383,15.5
384,30.0
1385,4937612.064024483
1386,0.0
1387,177887931.53460524
1388,0.0
9,117499689.85057473
45,59197225.640750627
132,14567035.364619121
182,11612628.845204981
255,181364441.27150245
280,0.0
549,171212914.7534262
562,219352543.97756488
586,219352543.97756488
599,0.0
621,32122800.0
646,0.0
659,0.0
2,3, 1, 3, 0,19, 0.00,60.00,Tuesday
303,7.200000000000002
304,30.0
343,15.6
344,26.7
383,15.5
384,30.0
1385,18296100.259049994
1386,0.0
1387,164813387.16920273
1388,0.0
9,67598226.4443364
45,19732408.546916885
132,3641758.8411547804
182,12101259.056264738
255,194311137.6356031
280,0.0
549,183388418.01362137
562,234553117.9640209
586,234553117.9640209
599,0.0
621,32122800.0
646,0.0
659,0.0
2,3, 1, 3, 0,20, 0.00,60.00,Tuesday
303,7.200000000000002
304,30.0
343,15.6
344,26.7
383,15.5
384,30.0
1385,16631731.022192575
1386,0.0
1387,231372695.56639684
1388,0.0
9,72064249.31617631
45,19732408.546916885
132,3641758.8411547804
182,16567281.928104639
255,274783812.25005856
280,0.0
549,260403059.8316818
562,333340802.3097572
586,333340802.3097572
599,0.0
621,32122800.0
646,0.0
659,0.0
2,3, 1, 3, 0,21, 0.00,60.00,Tuesday
303,7.200000000000002
304,30.0
343,15.6
344,26.7
383,15.5
384,30.0
1385,24113464.28757724
1386,0.0
1387,175970822.0865824
1388,0.0
9,68922660.97253053
45,19732408.546916885
132,3641758.8411547804
182,13425693.584458875
255,235418822.4617352
280,0.0
549,223403635.210006
562,285676547.0103116
586,285676547.0103116
599,0.0
621,32122800.0
646,0.0
659,0.0
2,3, 1, 3, 0,22, 0.00,60.00,Tuesday
303,7.200000000000002
304,30.0
343,15.6
344,26.7
383,15.5
384,30.0
1385,19375289.13543514
1386,0.0
1387,240208512.6169283
1388,0.0
9,72736542.08957066
45,19732408.546916885
132,3641758.8411547804
182,17239574.701499
255,299483928.41235426
280,0.0
549,284539728.7041376
562,364201240.0522001
586,364201240.0522001
599,0.0
621,32122800.0
646,0.0
659,0.0
2,3, 1, 3, 0,23, 0.00,60.00,Tuesday
303,7.200000000000002
304,30.0
343,15.6
344,26.7
383,15.5
384,30.0
1385,26774828.34196839
1386,0.0
1387,181175738.3432036
1388,0.0
9,69368796.2767388
45,19732408.546916885
132,3641758.8411547804
182,13871828.88866713
255,252199001.58739165
280,0.0
549,239850655.3001372
562,306680977.5082752
586,306680977.5082752
599,0.0
621,32122800.0
646,0.0
659,0.0
2,3, 1, 3, 0,24, 0.00,60.00,Tuesday
303,7.200000000000002
304,30.0
343,15.6
344,26.7
383,15.5
384,30.0
1385,21105673.324675744
1386,0.0
1387,245663053.29045666
1388,0.0
9,73151885.29425496
45,19732408.546916885
132,3641758.8411547804
182,17654917.906183296
255,312375978.1169503
280,0.0
549,297101968.06929567
562,380253689.6488801
586,380253689.6488801
599,0.0
621,32122800.0
646,0.0
659,0.0
2,4, 1, 4, 0, 1, 0.00,60.00,Wednesday
303,7.200000000000002
304,30.0
343,15.6
344,26.7
383,15.5
384,30.0
1385,28510175.528276076
1386,0.0
1387,184009118.65808163
1388,0.0
9,69624576.03183653
45,19732408.546916885
132,3641758.8411547804
182,14127608.643764873
255,260745101.77436186
280,0.0
549,248221846.91226594
562,317360136.9898549
586,317360136.9898549
599,0.0
621,32122800.0
646,0.0
659,0.0
2,4, 1, 4, 0, 2, 0.00,60.00,Wednesday
303,7.200000000000002
304,30.0
343,15.6
344,26.7
383,15.5
384,30.0
1385,22313048.484595665
1386,0.0
1387,248646846.05478258
1388,0.0
9,73391722.34137371
45,19732408.546916885