Program Version,EnergyPlus, Version 9.2.0-921312fa1d, YMD=2020.12.22 17:49
1,5,Environment Title[],Latitude[deg],Longitude[deg],Time Zone[],Elevation[m]
2,8,Day of Simulation[],Month[],Day of Month[],DST Indicator[1=yes 0=no],Hour[],StartMinute[],EndMinute[],DayType
3,5,Cumulative Day of Simulation[],Month[],Day of Month[],DST Indicator[1=yes 0=no],DayType  ! When Daily Meters Requested
4,2,Cumulative Days of Simulation[],Month[]  ! When Monthly Meters Requested
5,1,Cumulative Days of Simulation[] ! When Run Period Meters Requested
6,1,Calendar Year of Simulation[] ! When Annual Meters Requested
9,1,Electricity:Facility [J] !Hourly
2217,1,Heating:Electricity [J] !Hourly
2125,1,Cooling:Electricity [J] !Hourly
45,1,InteriorLights:Electricity [J] !Hourly
2063,1,ExteriorLights:Electricity [J] !Hourly
457,1,InteriorEquipment:Electricity [J] !Hourly
2088,1,ExteriorEquipment:Electricity [J] !Hourly
2035,1,Fans:Electricity [J] !Hourly
2293,1,Pumps:Electricity [J] !Hourly
2242,1,HeatRejection:Electricity [J] !Hourly
739,1,Gas:Facility [J] !Hourly
2192,1,Heating:Gas [J] !Hourly
763,1,WaterSystems:Gas [J] !Hourly
2163,1,HeatRejection:EnergyTransfer [J] !Hourly
924,1,Heating:EnergyTransfer [J] !Hourly
949,1,Cooling:EnergyTransfer [J] !Hourly
1734,1,WaterSystems:EnergyTransfer [J] !Hourly
1891,1,HeatingCoils:EnergyTransfer [J] !Hourly
1967,1,CoolingCoils:EnergyTransfer [J] !Hourly
End of Data Dictionary
1,RUNPERIOD 1,  41.98, -87.92,  -6.00, 201.00
2,1, 1, 1, 0, 1, 0.00,60.00,Holiday
9,939357134.9596739
45,89713308.72273873
457,538279852.336432
739,1787015705.4380544
763,7882024.708193699
924,1099710542.5218673
949,202556437.5649908
1734,5654775.651891884
1891,1316655262.6287127
1967,965.4721111042691
2035,80104868.03441902
2063,184543200.0
2088,43999912.087912078
2125,0.0
2163,0.0
2192,1779133680.7298606
2217,0.0
2242,0.0
2293,2715993.7781719535
2,1, 1, 1, 0, 2, 0.00,60.00,Holiday
9,926376447.3776038
45,89713308.72273873
457,538279852.336432
739,1608845707.077032
763,7882863.62625016
924,1081323955.603736
949,163900257.2831672
1734,5654775.645711498
1891,1261474917.0377992
1967,1358.2587334354194
2035,66978635.077774647
2063,184543200.0
2088,43999912.087912078
2125,0.0
2163,0.0
2192,1600962843.4507819
2217,0.0
2242,0.0
2293,2861539.1527463828
2,1, 1, 1, 0, 3, 0.00,60.00,Holiday
9,944374639.8569732
45,89713308.72273873
457,538279852.336432
739,2157241720.7810766
763,7882342.718882023
924,1435480351.6811159
949,213084932.88702677
1734,5654775.617038031
1891,1651295105.8644334
1967,1041.3039774322472
2035,83723293.8472183
2063,184543200.0
2088,43999912.087912078
2125,0.0
2163,0.0
2192,2149359378.0621945
2217,0.0
2242,0.0
2293,4115072.862672111
2,1, 1, 1, 0, 4, 0.00,60.00,Holiday
9,926428722.9788472
45,89713308.72273873
457,538279852.336432
739,1600718545.3843616
763,7882954.073302489
924,1098884095.570367
949,157861856.4972268
1734,5654775.595787653
1891,1283832421.045655
1967,609.9311195219137
2035,66978635.077774647
2063,184543200.0
2088,43999912.087912078
2125,0.0
2163,0.0
2192,1592835591.311059
2217,0.0
2242,0.0
2293,2913814.7539896664
2,1, 1, 1, 0, 5, 0.00,60.00,Holiday
9,988473123.2252379
45,89713308.72273873
457,538279852.336432
739,2197719689.3026626
763,7882645.097689644
924,1464060062.0034879
949,207433794.19683097
1734,5654775.658139582
1891,1683523740.3947387
1967,312.33157529179098
2035,83723293.8472183
2063,184543200.0
2088,87999824.17582415
2125,0.0
2163,0.0
2192,2189837044.2049729
2217,0.0
2242,0.0
2293,4213644.143024463
2,1, 1, 1, 0, 6, 0.00,60.00,Holiday
9,1058507507.3957369
45,89713308.72273873
457,538279852.336432
739,1631832672.096061
763,7893710.825315712
924,1121035826.9396883
949,153880820.7948122
1734,9895854.806274742
1891,1308384363.278596
1967,0.0
2035,66978635.077774647
2063,184543200.0
2088,175999648.3516483
2125,0.0
2163,0.0
2192,1623938961.2707453
2217,0.0
2242,0.0
2293,2992862.907143259
2,1, 1, 1, 0, 7, 0.00,60.00,Holiday
9,1252586655.413261
45,89713308.72273873
457,538279852.336432
739,2242669187.665846
763,7882914.181528981
924,1496233062.7777222
949,202752325.0627099
1734,5654775.5149674
1891,1717477615.6633168
1967,0.0
2035,83723293.8472183
2063,184543200.0
2088,351999296.7032966
2125,0.0
2163,0.0
2192,2234786273.484317
2217,0.0
2242,0.0
2293,4327703.803575125
2,1, 1, 1, 0, 8, 0.00,60.00,Holiday
9,1199450647.3666969
45,89713308.72273873
457,538279852.336432
739,1608733893.710772
763,7881992.781330787
924,1108979915.9826616
949,150609262.62929649
1734,5654775.670506664
1891,1297765381.717535
1967,0.0
2035,66978635.077774647
2063,61514400.0
2088,439999120.8791207
2125,0.0
2163,0.0
2192,1600851900.929441
2217,0.0
2242,0.0
2293,2965330.350630805
2,1, 1, 1, 0, 9, 0.00,60.00,Holiday
9,1154646565.600974
45,89713308.72273873
457,538279852.336432
739,1672655904.6319628
763,7882818.110975375
924,1103384517.472039
949,231446642.02913583
1734,5654775.426652859
1891,1299317214.5497375
1967,0.0
2035,83723293.8472183
2063,0.0
2088,439999120.8791207
2125,0.0
2163,0.0
2192,1664773086.5209876
2217,0.0
2242,0.0
2293,2930989.8154642267
2,1, 1, 1, 0,10, 0.00,60.00,Holiday
9,1004575116.1690278
45,89713308.72273873
457,538279852.336432
739,971957488.1023061
763,7882294.019252169
924,656275178.6137341
949,229008715.98383633
1734,5654775.681986539
1891,779711981.265455
1967,0.0
2035,66978635.077774647
2063,0.0
2088,307999384.6153846
2125,0.0
2163,0.0
2192,964075194.083054
2217,0.0
2242,0.0
2293,1603935.4166976512
2,1, 1, 1, 0,11, 0.00,60.00,Holiday
9,845784823.8807604
45,89713308.72273873
457,538279852.336432
739,1238164662.7647088
763,7882905.645886382
924,846910129.7359037
949,353854332.3523805
1734,5654775.477796102
1891,953923825.2741038
1967,0.0
2035,83723293.8472183
2063,0.0
2088,131999736.26373624
2125,0.0
2163,0.0
2192,1230281757.1188226
2217,0.0
2242,0.0
2293,2068632.7106350118
2,1, 1, 1, 0,12, 0.00,60.00,Holiday
9,828247282.768683
45,89713308.72273873
457,538279852.336432
739,831465875.4632161
763,15707649.844474847
924,589736259.1627615
949,285741050.40842488
1734,8482163.505801361
1891,683244646.8167297
1967,0.0
2035,66978635.077774647
2063,0.0
2088,131999736.26373624
2125,0.0
2163,0.0
2192,815758225.6187412
2217,0.0
2242,0.0
2293,1275750.3680012164
2,1, 1, 1, 0,13, 0.00,60.00,Holiday
9,845274799.7729097
45,89713308.72273873
457,538279852.336432
739,1055135369.6965531
763,7889711.738891283
924,711326313.3808746
949,343045295.0105473
1734,8482163.471076882
1891,834628945.3404105
1967,0.0
2035,83723293.8472183
2063,0.0
2088,131999736.26373624
2125,0.0
2163,0.0
2192,1047245657.957662
2217,0.0
2242,0.0
2293,1558608.6027842693
2,1, 1, 1, 0,14, 0.00,60.00,Holiday
9,828064282.3845769
45,89713308.72273873
457,538279852.336432
739,795636353.2762233
763,23558592.480685057
924,503080176.5798618
949,234525940.32931829
1734,12723241.823224225
1891,636848719.1455684
1967,0.0
2035,66978635.077774647
2063,0.0
2088,131999736.26373624
2125,0.0
2163,0.0
2192,772077760.7955383
2217,0.0
2242,0.0
2293,1092749.9838952437
2,1, 1, 1, 0,15, 0.00,60.00,Holiday
9,845141223.7393923
45,89713308.72273873
457,538279852.336432
739,1050953931.64182
763,7890153.507306583
924,642383959.765525
949,275597485.85188159
1734,8482163.235829372
1891,825567622.8810538
1967,0.0
2035,83723293.8472183
2063,0.0
2088,131999736.26373624
2125,0.0
2163,0.0
2192,1043063778.1345134
2217,0.0
2242,0.0
2293,1425032.569266764
2,1, 1, 1, 0,16, 0.00,60.00,Holiday
9,828136281.3551402
45,89713308.72273873
457,538279852.336432
739,883316882.8183518
763,7882954.300514669
924,528079459.8662331
949,192620731.29134874
1734,5654775.431427027
1891,702722794.6968057
1967,0.0
2035,66978635.077774647
2063,0.0
2088,131999736.26373624
2125,0.0
2163,0.0
2192,875433928.517837
2217,0.0
2242,0.0
2293,1164748.9544585208
2,1, 1, 1, 0,17, 0.00,60.00,Holiday
9,1144429873.846871
45,89713308.72273873
457,538279852.336432
739,1262958900.455834
763,7882217.783133024
924,759190671.5869999
949,246919958.58887387
1734,5654775.677482437
1891,969638160.7397318
1967,0.0
2035,83723293.8472183
2063,123028800.0
2088,307999384.6153846
2125,0.0
2163,0.0
2192,1255076682.672701
2217,0.0
2242,0.0
2293,1685234.325097182
2,1, 1, 1, 0,18, 0.00,60.00,Holiday
9,1320859262.2195976
45,89713308.72273873
457,538279852.336432
739,1008623582.1919963
763,7882829.928048463
924,609025793.444677
949,180398636.50857068
1734,5654775.470188186
1891,794267374.7304593
1967,0.0
2035,66978635.077774647
2063,184543200.0
2088,439999120.8791207
2125,0.0
2163,0.0
2192,1000740752.2639477
2217,0.0
2242,0.0
2293,1345145.203531326
2,1, 1, 1, 0,19, 0.00,60.00,Holiday
9,1338203719.4753779
45,89713308.72273873
457,538279852.336432
739,1413131187.857845
763,7882519.823205613
924,857619444.7862967
949,237386756.8933303
1734,5654775.683366061
1891,1075470614.2009845
1967,0.0
2035,83723293.8472183
2063,184543200.0
2088,439999120.8791207
2125,0.0
2163,0.0
2192,1405248668.0346397
2217,0.0
2242,0.0
2293,1944943.6898678302
2,1, 1, 1, 0,20, 0.00,60.00,Holiday
9,1233019246.5515464
45,89713308.72273873
457,538279852.336432
739,1085375212.721574
763,7882916.883648005
924,669154766.796059
949,176256969.64319314
1734,5654775.520158926
1891,858101181.9327567
1967,0.0
2035,66978635.077774647
2063,184543200.0
2088,351999296.7032966
2125,0.0
2163,0.0
2192,1077492295.8379262
2217,0.0
2242,0.0
2293,1504953.711304192
2,1, 1, 1, 0,21, 0.00,60.00,Holiday
9,1250242436.5660859
45,89713308.72273873
457,538279852.336432
739,1415561341.5524655
763,7882821.760050806
924,869635259.8774629
949,232864434.67473907
1734,5654775.685848794
1891,1092782916.9460188
1967,0.0
2035,83723293.8472183
2063,184543200.0
2088,351999296.7032966
2125,0.0
2163,0.0
2192,1407678519.7924145
2217,0.0
2242,0.0
2293,1983484.9563999796
2,1, 1, 1, 0,22, 0.00,60.00,Holiday
9,1145016336.8393894
45,89713308.72273873
457,538279852.336432
739,1093082802.2133675
763,15714565.516275218
924,669463000.1443818
949,174284363.71411423
1734,9895857.2964631
1891,860650490.808418
1967,0.0
2035,66978635.077774647
2063,184543200.0
2088,263999472.52747248
2125,0.0
2163,0.0
2192,1077368236.6970924
2217,0.0
2242,0.0
2293,1501868.1749714697
2,1, 1, 1, 0,23, 0.00,60.00,Holiday
9,1074375762.2883094
45,89713308.72273873
457,538279852.336432
739,1494762880.502181
763,7882836.797928044
924,916650376.5475508
949,230463024.64920736
1734,5654775.632894924
1891,1141909400.5107103
1967,0.0
2035,83723293.8472183
2063,184543200.0
2088,175999648.3516483
2125,0.0
2163,0.0
2192,1486880043.704253
2217,0.0
2242,0.0
2293,2116459.0302719075
2,1, 1, 1, 0,24, 0.00,60.00,Holiday
9,969164824.4155573
45,89713308.72273873
457,538279852.336432
739,1160522800.556497
763,7882312.798343305
924,724101548.1563373
949,171342066.02615679
1734,5654775.577198065
1891,917022294.2489276
1967,423.146270736955
2035,66978635.077774647
2063,184543200.0
2088,87999824.17582415
2125,0.0
2163,0.0
2192,1152640487.758154
2217,0.0
2242,0.0
2293,1650004.1027875974
2,2, 1, 2, 0, 1, 0.00,60.00,Monday
9,1121914724.6352013
45,89713308.72273873
457,717706469.7819098
739,1514385556.404613
763,7885539.379137169
924,976746742.1331159
949,277691288.62046936
1734,7083468.948036091
1891,1152280869.815372
1967,0.0
2035,83723293.8472183
2063,184543200.0
2088,43999912.087912078
2125,0.0
2163,0.0
2192,1506500017.0254756
2217,0.0
2242,0.0
2293,2228540.1954222505
2,2, 1, 2, 0, 2, 0.00,60.00,Monday
9,1104647774.8157666
45,89713308.72273873
457,717706469.7819098
739,1153267377.7650669
763,7886649.252669876
924,767409615.765243
949,214743785.41047053
1734,7083468.912584547
1891,915374430.4989431
1967,0.0
2035,66978635.077774647
2063,184543200.0
2088,43999912.087912078
2125,0.0
2163,0.0
2192,1145380728.512397
2217,0.0
2242,0.0
2293,1706249.1454314022
2,2, 1, 2, 0, 3, 0.00,60.00,Monday
9,1122006990.8742872
45,89713308.72273873
457,717706469.7819098
739,1544084576.4846607
763,15701025.973321796
924,1009655487.54168
949,286053047.09502807
1734,7083468.563013675
1891,1176808613.6085027
1967,0.0
2035,83723293.8472183
2063,184543200.0
2088,43999912.087912078
2125,0.0
2163,0.0
2192,1528383550.511339
2217,0.0
2242,0.0
2293,2320806.4345082065
2,2, 1, 2, 0, 4, 0.00,60.00,Monday
9,1104644446.076796
45,89713308.72273873
457,717706469.7819098
739,1145503052.6052819
763,7886638.539483605
924,769290213.1612315
949,216372322.88465349
1734,7083468.542557048
1891,915724702.0150391
1967,0.0
2035,66978635.077774647
2063,184543200.0
2088,43999912.087912078
2125,0.0
2163,0.0
2192,1137616414.0657984
2217,0.0
2242,0.0
2293,1702920.4064608643
2,2, 1, 2, 0, 5, 0.00,60.00,Monday
9,1165869494.277609
45,89713308.72273873
457,717706469.7819098
739,1466315854.9746977
763,7885600.16860868
924,968714758.2282753
949,287911715.7942471
1734,7083468.9510898529
1891,1135982552.646151
1967,2567.1339309350535
2035,83723293.8472183
2063,184543200.0
2088,87999824.17582415
2125,0.0
2163,0.0
2192,1458430254.806089
2217,0.0
2242,0.0
2293,2183397.749918133
2,2, 1, 2, 0, 6, 0.00,60.00,Monday
9,1326166310.9120618
45,179426617.44547747
457,717706469.7819098
739,1063414829.3487156
763,15722943.16750091
924,708033679.6041825
949,225869301.810979
1734,11333550.137536109
1891,848161989.3586724
1967,0.0
2035,66978635.077774647
2063,184543200.0
2088,175999648.3516483
2125,0.0
2163,0.0
2192,1047691886.1812146
2217,0.0
2242,0.0
2293,1511740.2552515954
2,2, 1, 2, 0, 7, 0.00,60.00,Monday
9,1566111596.775961
45,179426617.44547747
457,717706469.7819098
739,7224918737.245643
763,15715081.298463859
924,4306629747.420375
949,0.0
1734,9916855.49168024
1891,5318156701.565146
1967,0.0
2035,104667536.56139931
2063,184543200.0
2088,351999296.7032966
2125,0.0
2163,0.0
2192,7209203655.94718
2217,0.0
2242,0.0
2293,27768476.283878138
2,2, 1, 2, 0, 8, 0.00,60.00,Monday
9,1884048574.5618396
45,538279852.336432
457,717706469.7819098
739,7297628461.017463
763,31526650.582740446
924,3575748824.6764237
949,0.0
1734,26917138.07752254
1891,5757325124.909343
1967,0.0
2035,104667536.56139931
2063,61514400.0
2088,439999120.8791207
2125,0.0
2163,0.0
2192,7266101810.434721
2217,0.0
2242,0.0
2293,21881195.00297767
2,2, 1, 2, 0, 9, 0.00,60.00,Monday
9,3789942838.939903
45,1614839557.0092962
457,1614839557.0092962
739,6070018322.563573
763,63454669.70820553
924,2562300370.295587
949,17336334.45536893
1734,49584260.333512
1891,4753466133.8883099
1967,0.0
2035,104667536.56139931
2063,0.0
2088,439999120.8791207
2125,0.0
2163,0.0
2192,6006563652.855368
2217,0.0
2242,0.0
2293,15597067.480788399
2,2, 1, 2, 0,10, 0.00,60.00,Monday
9,3655736442.359542
45,1614839557.0092962
457,1614839557.0092962
739,5429210336.854685
763,71483232.40337083
924,2107976421.043521
949,55265092.90192145
1734,53834329.39309388
1891,4209449992.1423566
1967,0.0
2035,104667536.56139931
2063,0.0
2088,307999384.6153846
2125,0.0
2163,0.0
2192,5357727104.451313
2217,0.0
2242,0.0
2293,13390407.16416452
2,2, 1, 2, 0,11, 0.00,60.00,Monday
9,3478276783.0341818
45,1614839557.0092962
457,1614839557.0092962
739,4866634901.54586
763,71508785.11545758
924,1793662475.5357762
949,82617579.89773792
1734,55250975.017249848
1891,3780154088.550112
1967,0.0
2035,104667536.56139931
2063,0.0
2088,131999736.26373624
2125,0.0
2163,0.0
2192,4795126116.430403
2217,0.0
2242,0.0
2293,11930396.190451775
2,2, 1, 2, 0,12, 0.00,60.00,Monday
9,3474834184.8523018
45,1614839557.0092962
457,1614839557.0092962
739,4128492479.773484
763,79750790.18571592
924,1347756757.5058754
949,113227224.78437755
1734,66584376.30001381
1891,3260056287.474873
1967,0.0
2035,104667536.56139931
2063,0.0
2088,131999736.26373624
2125,0.0
2163,0.0
2192,4048741689.5877687
2217,0.0
2242,0.0
2293,8487798.008571893
2,2, 1, 2, 0,13, 0.00,60.00,Monday
9,3295362440.5208637
45,1614839557.0092962
457,1435412939.5638197
739,4209197271.6425688
763,104157788.92477255
924,1255140381.596657
949,87174844.22898561
1734,80751534.39599878
1891,3211543735.092904
1967,0.0
2035,104667536.56139931
2063,0.0
2088,131999736.26373624
2125,0.0
2163,0.0
2192,4105039482.7177956
2217,0.0
2242,0.0
2293,8442671.122611111
2,2, 1, 2, 0,14, 0.00,60.00,Monday
9,3471957816.3076426
45,1614839557.0092962
457,1614839557.0092962
739,3457976559.077071
763,95993906.88812375
924,1006052515.870689
949,460539895.74058476
1734,76501461.85731273
1891,2735382241.828865
1967,0.0
2035,104667536.56139931
2063,0.0
2088,131999736.26373624
2125,0.0
2163,0.0
2192,3361982652.1889479
2217,0.0
2242,0.0
2293,5611429.463913149
2,2, 1, 2, 0,15, 0.00,60.00,Monday
9,3471606138.564938
45,1614839557.0092962
457,1614839557.0092962
739,3483543255.648952
763,63429963.70373086
924,979151026.4939592
949,617885559.0064821
1734,48167579.92054473
1891,2704108861.9311468
1967,0.0
2035,104667536.56139931
2063,0.0
2088,131999736.26373624
2125,0.0
2163,0.0
2192,3420113291.9452207
2217,0.0
2242,0.0
2293,5259751.721208624
2,2, 1, 2, 0,16, 0.00,60.00,Monday
9,3471066376.242131
45,1614839557.0092962
457,1614839557.0092962
739,3235466682.7812788
763,55476104.27474319
924,957340023.2365971
949,741241922.1394942
1734,46750893.34438473
1891,2517074371.66195
1967,0.0
2035,104667536.56139931
2063,0.0
2088,131999736.26373624
2125,0.0
2163,0.0
2192,3179990578.5065357
2217,0.0
2242,0.0
2293,4719989.398401543
2,2, 1, 2, 0,17, 0.00,60.00,Monday
9,3769736021.874481
45,1614839557.0092962
457,1614839557.0092962
739,3085359117.7464349
763,79646206.71542573
924,960582715.78689
949,844823413.4094625
1734,62334415.36098683
1891,2367236896.503378
1967,0.0
2035,104667536.56139931
2063,123028800.0
2088,307999384.6153846
2125,0.0
2163,0.0
2192,3005712911.0310099
2217,0.0
2242,0.0
2293,4361186.6791034969
2,2, 1, 2, 0,18, 0.00,60.00,Monday
9,3425801418.3996269
45,1255986322.1183415
457,1435412939.5638197
739,3524801842.644119
763,47405777.84323765
924,1045254350.2145217
949,693060473.1708133
1734,36834038.75869333
1891,2702335636.892038
1967,0.0
2035,104667536.56139931
2063,184543200.0
2088,439999120.8791207
2125,0.0
2163,0.0
2192,3477396064.8008816
2217,0.0
2242,0.0
2293,5192299.276944677
2,2, 1, 2, 0,19, 0.00,60.00,Monday
9,2709380151.9486505
45,897133087.2273873
457,1076559704.672864
739,4017409651.0739319
763,39426368.558263238
924,1142600913.7139166
949,396415422.5272105
1734,29750533.51264885
1891,3079224775.7116878
1967,0.0
2035,104667536.56139931
2063,184543200.0
2088,439999120.8791207
2125,0.0
2163,0.0
2192,3977983282.515669
2217,0.0
2242,0.0
2293,6477502.607879108
2,2, 1, 2, 0,20, 0.00,60.00,Monday
9,2620973106.8570625
45,897133087.2273873
457,1076559704.672864
739,3744099200.7832357
763,23620224.98676631
924,1107137316.8424328
949,419314192.6747514
1734,21250396.59133749
1891,2928711038.1272995
1967,0.0
2035,104667536.56139931
2063,184543200.0
2088,351999296.7032966
2125,0.0
2163,0.0
2192,3720478975.7964699
2217,0.0
2242,0.0
2293,6070281.692114913
2,2, 1, 2, 0,21, 0.00,60.00,Monday
9,2083957439.584344
45,538279852.336432
457,897133087.2273873
739,4139136623.316047
763,31497986.428151307
924,1182835793.0283287
949,187756486.65816049
1734,24083787.041514458
1891,3172389932.057618
1967,0.0
2035,104667536.56139931
2063,184543200.0
2088,351999296.7032966
2125,0.0
2163,0.0
2192,4107638636.887896
2217,0.0
2242,0.0
2293,7334466.755828538
2,2, 1, 2, 0,22, 0.00,60.00,Monday
9,1995693392.3181465
45,538279852.336432
457,897133087.2273873
739,3927351572.798453
763,15720470.090208147
924,1152826729.6252232
949,194773639.89388
1734,11333547.402809697
1891,3074421547.7500317
1967,0.0
2035,104667536.56139931
2063,184543200.0
2088,263999472.52747248
2125,0.0
2163,0.0
2192,3911631102.708245
2217,0.0
2242,0.0
2293,7070243.665455245
2,2, 1, 2, 0,23, 0.00,60.00,Monday
9,1257684980.1975399
45,179426617.44547747
457,717706469.7819098
739,7886312.309001824
763,7886312.309001824
924,0.0
949,0.0
1734,7083468.914941027
1891,0.0
1967,0.0
2035,0.0
2063,184543200.0
2088,175999648.3516483
2125,0.0
2163,0.0
2192,0.0
2217,0.0
2242,0.0
2293,9044.618504560105
2,2, 1, 2, 0,24, 0.00,60.00,Monday
9,1079971846.0494486
45,89713308.72273873
457,717706469.7819098
739,15700056.527471748
763,15700056.527471748
924,0.0
949,0.0
1734,7083468.35517724
1891,0.0
1967,0.0
2035,0.0
2063,184543200.0
2088,87999824.17582415
2125,0.0
2163,0.0
2192,0.0
2217,0.0
2242,0.0
2293,9043.368975829582
2,3, 1, 3, 0, 1, 0.00,60.00,Tuesday
9,1035971932.7472018
45,89713308.72273873
457,717706469.7819098
739,7885816.484522769
763,7885816.484522769
924,0.0
949,0.0
1734,7098183.161527189
1891,0.0
1967,0.0
2035,0.0
2063,184543200.0
2088,43999912.087912078
2125,0.0
2163,0.0
2192,0.0
2217,0.0
2242,0.0
2293,9042.154641340036
2,3, 1, 3, 0, 2, 0.00,60.00,Tuesday
9,1035971934.5881983
45,89713308.72273873
457,717706469.7819098
739,7886107.192884001
763,7886107.192884001
924,0.0
949,0.0
1734,7098183.535489699
1891,0.0
1967,0.0
2035,0.0
2063,184543200.0
2088,43999912.087912078
2125,0.0
2163,0.0
2192,0.0
2217,0.0
2242,0.0
2293,9043.99563778762
2,3, 1, 3, 0, 3, 0.00,60.00,Tuesday
9,1040203522.7751428
45,89713308.72273873
457,717706469.7819098
739,23026404.761728255
763,7886393.680062184
924,40967139.027834627
949,32124706.11787773
1734,7098183.638279194
1891,20846653.211617039
1967,67.28708617921629
2035,4204674.979474315
2063,184543200.0
2088,43999912.087912078
2125,0.0
2163,0.0
2192,15140011.081666068
2217,0.0
2242,0.0
2293,35957.203107931644
2,3, 1, 3, 0, 4, 0.00,60.00,Tuesday
9,1041621914.029341
45,89713308.72273873
457,717706469.7819098
739,40960683.032756019
763,15701397.745728082
924,58830968.41559554
949,40886363.00230797
1734,7098184.014328923
1891,32900574.54743184
1967,0.0
2035,5606233.305965753
2063,184543200.0
2088,43999912.087912078
2125,0.0
2163,0.0
2192,25259285.287027938
2217,0.0
2242,0.0
2293,52790.13081464353
2,3, 1, 3, 0, 5, 0.00,60.00,Tuesday
9,1087043688.2179268
45,89713308.72273873
457,717706469.7819098
739,46150231.589260298
763,7886635.381550582
924,78958715.79353008
949,47923258.172701779
1734,7098183.374318853
1891,47132091.04605283
1967,0.0
2035,7007791.632457191
2063,184543200.0
2088,87999824.17582415
2125,0.0
2163,0.0
2192,38263596.207709718
2217,0.0
2242,0.0
2293,73093.9049968162
2,3, 1, 3, 0, 6, 0.00,60.00,Tuesday
9,1291551658.0352765
45,179426617.44547747
457,717706469.7819098
739,185656710.1742649
763,15723396.486232777
924,141695774.54824365
949,312622789.4628304
1734,11357092.640387973
1891,187305436.92960436
1967,767.2884780581919
2035,33597493.602764587
2063,184543200.0
2088,175999648.3516483
2125,0.0
2163,0.0
2192,169933313.6880321
2217,0.0
2242,0.0
2293,278228.85347654766
2,3, 1, 3, 0, 7, 0.00,60.00,Tuesday
9,1555066216.3214389
45,179426617.44547747
457,717706469.7819098
739,5760360521.865192
763,15714374.473859147
924,2682757566.6082065
949,33019088.664485307
1734,9937456.98031202
1891,4288632498.3681929
1967,3193.78691540012
2035,104667536.56139931
2063,184543200.0
2088,351999296.7032966
2125,0.0
2163,0.0
2192,5744646147.391334
2217,0.0
2242,0.0
2293,16723095.829355944
2,3, 1, 3, 0, 8, 0.00,60.00,Tuesday
9,1874605908.0669218
45,538279852.336432
457,717706469.7819098
739,5804090758.724011
763,31528110.54091441
924,1875843903.1369863
949,55743657.43600145
1734,26973058.26748351
1891,4612620048.13829
1967,0.0
2035,104667536.56139931
2063,61514400.0
2088,439999120.8791207
2125,0.0
2163,0.0
2192,5772562648.183098
2217,0.0
2242,0.0
2293,12438528.508059856
2,3, 1, 3, 0, 9, 0.00,60.00,Tuesday
9,3780663817.888284
45,1614839557.0092962
457,1614839557.0092962
739,3885603081.1958725
763,63459766.76293996
924,1170525592.026935
949,949575515.0588324
1734,49687267.90870561
1891,3113582205.9617178
1967,0.0
2035,104667536.56139931
2063,0.0
2088,439999120.8791207
2125,0.0
2163,0.0
2192,3822143314.432933
2217,0.0
2242,0.0
2293,6318046.429170072
2,3, 1, 3, 0,10, 0.00,60.00,Tuesday
9,3647923394.208636
45,1614839557.0092962
457,1614839557.0092962
739,3646369072.151978
763,71488250.50024963
924,933895208.9379836
949,1078985132.9537767
1734,53946179.53107754
1891,2819099707.774381
1967,0.0
2035,104667536.56139931
2063,0.0
2088,307999384.6153846
2125,0.0
2163,0.0
2192,3574880821.6517279
2217,0.0
2242,0.0
2293,5577359.01325794
2,3, 1, 3, 0,11, 0.00,60.00,Tuesday
9,3471234985.380194
45,1614839557.0092962
457,1614839557.0092962
739,3263626188.532234
763,63567761.13671079
924,759253720.7586119
949,1173848638.68208
1734,55365726.45734572
1891,2523888441.7268588
1967,0.0
2035,104667536.56139931
2063,0.0
2088,131999736.26373624
2125,0.0
2163,0.0
2192,3200058427.3955237
2217,0.0
2242,0.0
2293,4888598.53646462
2,3, 1, 3, 0,12, 0.00,60.00,Tuesday
9,3470672006.0633709
45,1614839557.0092962
457,1614839557.0092962
739,2959302606.78511
763,87726572.84314224
924,637554427.7865752
949,1252772222.7019609
1734,66722669.45292796
1891,2263778515.9840428
1967,0.0
2035,104667536.56139931
2063,0.0
2088,131999736.26373624
2125,0.0
2163,0.0
2192,2871576033.941968
2217,0.0
2242,0.0
2293,4325619.219640946
2,3, 1, 3, 0,13, 0.00,60.00,Tuesday
9,3291308561.0914146
45,1614839557.0092962
457,1435412939.5638197
739,3072805547.708997
763,104158555.93472795
924,633559893.7257754
949,1105040991.8105677
1734,80919290.29866445
1891,2343398721.2157595
1967,0.0
2035,104667536.56139931
2063,0.0
2088,131999736.26373624
2125,0.0
2163,0.0
2192,2968646991.7742688
2217,0.0
2242,0.0
2293,4388791.693162037
2,3, 1, 3, 0,14, 0.00,60.00,Tuesday
9,3470055420.6127107
45,1614839557.0092962
457,1614839557.0092962
739,2631495946.5920917
763,95996004.08307249
924,483990002.00963106
949,1302079107.2082689
1734,76660382.03839414
1891,1993583054.9458798
1967,0.0
2035,104667536.56139931
2063,0.0
2088,131999736.26373624
2125,0.0
2163,0.0
2192,2535499942.509019
2217,0.0
2242,0.0
2293,3709033.768980633
2,3, 1, 3, 0,15, 0.00,60.00,Tuesday
9,3469917716.1821787
45,1614839557.0092962
457,1614839557.0092962
739,2541064383.239595
763,63433794.10250086
924,453500154.11203256
949,1326692493.5630344
1734,48267639.44487671
1891,1948127300.8879486
1967,0.0
2035,104667536.56139931
2063,0.0
2088,131999736.26373624
2125,0.0
2163,0.0
2192,2477630589.1370947
2217,0.0
2242,0.0
2293,3571329.3384489926
2,3, 1, 3, 0,16, 0.00,60.00,Tuesday
9,3469866671.807737
45,1614839557.0092962
457,1614839557.0092962
739,2507468934.9806869
763,55477861.228030759
924,439915401.26669636
949,1346283550.088283
1734,46848012.54751936
1891,1926238558.262767
1967,0.0
2035,104667536.56139931
2063,0.0
2088,131999736.26373624
2125,0.0
2163,0.0
2192,2451991073.7526557
2217,0.0
2242,0.0
2293,3520284.96400739
2,3, 1, 3, 0,17, 0.00,60.00,Tuesday
9,3769009905.3162715
45,1614839557.0092962
457,1614839557.0092962
739,2593286421.4587495
763,79650708.94271654
924,489648899.0310724
949,1362738975.471721
1734,62463876.53408968
1891,1970022859.0801974
1967,0.0
2035,104667536.56139931
2063,123028800.0
2088,307999384.6153846
2125,0.0
2163,0.0
2192,2513635712.516033
2217,0.0
2242,0.0
2293,3635070.120893128
2,3, 1, 3, 0,18, 0.00,60.00,Tuesday
9,3424509921.17022
45,1255986322.1183415
457,1435412939.5638197
739,2741943110.55753
763,47408260.889141749
924,589353218.5058215
949,1310396698.3148595
1734,36910556.8825319
1891,2109856223.4200407
1967,0.0
2035,104667536.56139931
2063,184543200.0
2088,439999120.8791207
2125,0.0
2163,0.0
2192,2694534849.668388
2217,0.0
2242,0.0
2293,3900802.0475377629
2,3, 1, 3, 0,19, 0.00,60.00,Tuesday
9,2707455474.589708
45,897133087.2273873
457,1076559704.672864
739,3159805750.048932
763,39431140.798325229
924,716830093.3285747
949,1099475682.191213
1734,29812326.874014275
1891,2443719619.915065
1967,0.0
2035,104667536.56139931
2063,184543200.0
2088,439999120.8791207
2125,0.0
2163,0.0
2192,3120374609.2506067
2217,0.0
2242,0.0
2293,4552825.24893627
2,3, 1, 3, 0,20, 0.00,60.00,Tuesday
9,2619597523.0868895
45,897133087.2273873
457,1076559704.672864
739,3234388759.872384
763,23621536.209902049
924,733795944.0756854
949,1045120135.5192783
1734,21294538.48843043
1891,2520126174.2968308
1967,0.0
2035,104667536.56139931
2063,184543200.0
2088,351999296.7032966
2125,0.0
2163,0.0
2192,3210767223.6624815
2217,0.0
2242,0.0
2293,4694697.921942047
2,3, 1, 3, 0,21, 0.00,60.00,Tuesday
9,2082263185.399201
45,538279852.336432
457,897133087.2273873
739,3776081065.477211
763,31499961.808676885
924,848191973.4088646
949,759774273.7941928
1734,24133809.04550876
1891,2919566761.0696685
1967,0.0
2035,104667536.56139931
2063,184543200.0
2088,351999296.7032966
2125,0.0
2163,0.0
2192,3744581103.6685345
2217,0.0
2242,0.0
2293,5640212.570685717
2,3, 1, 3, 0,22, 0.00,60.00,Tuesday
9,1994468233.606277
45,538279852.336432
457,897133087.2273873
739,3844092619.2924339
763,15721405.679010299
924,883659599.5950207
949,716537048.6908542
1734,11357091.919247579
1891,3000330900.077449
1967,0.0
2035,104667536.56139931
2063,184543200.0
2088,263999472.52747248
2125,0.0
2163,0.0
2192,3828371213.6134235
2217,0.0
2242,0.0
2293,5845084.953586182
2,3, 1, 3, 0,23, 0.00,60.00,Tuesday
9,1257684986.7535997
45,179426617.44547747
457,717706469.7819098
739,15700235.07191259
763,15700235.07191259
924,0.0
949,0.0
1734,7098183.981198187
1891,0.0
1967,0.0
2035,0.0
2063,184543200.0
2088,175999648.3516483
2125,0.0
2163,0.0
2192,0.0
2217,0.0
2242,0.0
2293,9051.174564327583
2,3, 1, 3, 0,24, 0.00,60.00,Tuesday
9,1079971849.490742
45,89713308.72273873
457,717706469.7819098
739,7885996.591011341
763,7885996.591011341
924,0.0
949,0.0
1734,7098183.265911255
1891,0.0
1967,0.0
2035,0.0
2063,184543200.0
2088,87999824.17582415
2125,0.0
2163,0.0
2192,0.0
2217,0.0
2242,0.0
2293,9046.810269220741
2,4, 1, 4, 0, 1, 0.00,60.00,Wednesday
9,1035971938.9270896
45,89713308.72273873
457,717706469.7819098
739,7886315.755528987
763,7886315.755528987
924,0.0
949,0.0
1734,7112609.661287186
1891,0.0
1967,0.0
2035,0.0
2063,184543200.0
2088,43999912.087912078
2125,0.0
2163,0.0
2192,0.0
2217,0.0
2242,0.0
2293,9048.33452906033
2,4, 1, 4, 0, 2, 0.00,60.00,Wednesday
9,1041618229.0241169
45,89713308.72273873
457,717706469.7819098
739,34315423.15162109
763,7886618.868988183
924,65335859.15165774
949,46197143.02272688
1734,7112609.950516121
1891,30567572.367425935
1967,47.59753219808227
2035,5606233.305965753
2063,184543200.0
2088,43999912.087912078
2125,0.0
2163,0.0
2192,26428804.282632907
2217,0.0
2242,0.0
2293,49105.12559068728
2,4, 1, 4, 0, 3, 0.00,60.00,Wednesday
9,1043040670.827441
45,89713308.72273873
457,717706469.7819098
739,56828864.96593683
763,15699500.708357264
924,84574946.50355847