Program Version,EnergyPlus, Version 9.2.0-921312fa1d, YMD=2020.12.22 18:19
1,5,Environment Title[],Latitude[deg],Longitude[deg],Time Zone[],Elevation[m]
2,8,Day of Simulation[],Month[],Day of Month[],DST Indicator[1=yes 0=no],Hour[],StartMinute[],EndMinute[],DayType
3,5,Cumulative Day of Simulation[],Month[],Day of Month[],DST Indicator[1=yes 0=no],DayType  ! When Daily Meters Requested
4,2,Cumulative Days of Simulation[],Month[]  ! When Monthly Meters Requested
5,1,Cumulative Days of Simulation[] ! When Run Period Meters Requested
6,1,Calendar Year of Simulation[] ! When Annual Meters Requested
9,1,Electricity:Facility [J] !Hourly
1488,1,Heating:Electricity [J] !Hourly
1427,1,Cooling:Electricity [J] !Hourly
45,1,InteriorLights:Electricity [J] !Hourly
1377,1,ExteriorLights:Electricity [J] !Hourly
207,1,InteriorEquipment:Electricity [J] !Hourly
1332,1,Fans:Electricity [J] !Hourly
1522,1,Pumps:Electricity [J] !Hourly
481,1,Refrigeration:Electricity [J] !Hourly
322,1,Gas:Facility [J] !Hourly
1475,1,Heating:Gas [J] !Hourly
358,1,InteriorEquipment:Gas [J] !Hourly
812,1,WaterSystems:Gas [J] !Hourly
937,1,Heating:EnergyTransfer [J] !Hourly
962,1,Cooling:EnergyTransfer [J] !Hourly
1179,1,WaterSystems:EnergyTransfer [J] !Hourly
456,1,Refrigeration:EnergyTransfer [J] !Hourly
1450,1,HeatingCoils:EnergyTransfer [J] !Hourly
1414,1,CoolingCoils:EnergyTransfer [J] !Hourly
End of Data Dictionary
1,RUNPERIOD 1,  41.98, -87.92,  -6.00, 201.00
2,1, 1, 1, 0, 1, 0.00,60.00,Holiday
9,428806311.73142209
45,20374527.54585125
207,24526752.225707845
322,649544115.9318202
358,6304500.0
456,429255889.3850039
481,184701704.45041717
812,72000.0
937,480953533.63576087
962,0.0
1179,449600.52206968856
1332,140156127.50917567
1377,59047200.0
1414,0.0
1427,0.0
1450,502043693.2836455
1475,643167615.9318202
1488,0.0
1522,0.00027024331853391613
2,1, 1, 1, 0, 2, 0.00,60.00,Holiday
9,435529768.7816565
45,20374527.54585125
207,24526752.225707845
322,907233891.4875581
358,6304500.0
456,420552772.2471918
481,183302803.22808755
812,72000.0
937,665959907.9692056
962,0.0
1179,449600.5436508921
1332,148278485.7817381
1377,59047200.0
1414,0.0
1427,0.0
1450,703206166.7194256
1475,900857391.4875581
1488,0.0
1522,0.00027176942670363254
2,1, 1, 1, 0, 3, 0.00,60.00,Holiday
9,385599576.022209
45,20374527.54585125
207,24526752.225707845
322,661137336.01812
358,6304500.0
456,417554055.24895659
481,182798772.39588306
812,4297329.9068
937,475882816.8878229
962,0.0
1179,449600.5438215158
1332,98852323.85449207
1377,59047200.0
1414,0.0
1427,0.0
1450,507811254.7587104
1475,650535506.11132
1488,0.0
1522,0.0002747866154266654
2,1, 1, 1, 0, 4, 0.00,60.00,Holiday
9,432471447.9871244
45,20374527.54585125
207,24526752.225707845
322,1066252313.9392035
358,6304500.0
456,400551545.0848962
481,180244482.43359567
812,72000.0
937,764844309.2132142
962,0.0
1179,385371.8896395257
1332,148278485.7817381
1377,59047200.0
1414,0.0
1427,0.0
1450,827350205.1346257
1475,1059875813.9392035
1488,0.0
1522,0.00023151947030344863
2,1, 1, 1, 0, 5, 0.00,60.00,Holiday
9,458434790.58695927
45,20374527.54585125
207,24526752.225707845
322,958721430.9275907
358,6304500.0
456,552803236.1613512
481,206207825.03342877
812,72000.0
937,711662157.476536
962,0.0
1179,385371.8948126058
1332,148278485.7817381
1377,59047200.0
1414,0.0
1427,0.0
1450,743398564.582593
1475,952344930.9275907
1488,0.0
1522,0.00023336300866229725
2,1, 1, 1, 0, 6, 0.00,60.00,Holiday
9,407476520.7528304
45,20374527.54585125
207,24526752.225707845
322,695676324.1097509
358,6304500.0
456,543927616.8398717
481,204675717.12654398
812,4297052.330705663
937,504059702.27694848
962,0.0
1179,385371.8955726403
1332,98852323.85449207
1377,59047200.0
1414,0.0
1427,0.0
1450,534774181.87872019
1475,685074771.7790452
1488,0.0
1522,0.00023531320515094917
2,1, 1, 1, 0, 7, 0.00,60.00,Holiday
9,562564160.1335315
45,40749055.0917025
207,50939904.45141569
322,3201911519.234268
358,12609000.0
456,586270746.4252604
481,214123352.8811588
812,72000.0
937,1837111126.2384413
962,0.0
1179,449600.538722042
1332,197704647.70898415
1377,59047200.0
1414,0.0
1427,0.0
1450,2489193365.7195575
1475,3189230519.234268
1488,0.0
1522,0.0002702299318551816
2,1, 1, 1, 0, 8, 0.00,60.00,Holiday
9,552543262.3333932
45,40749055.0917025
207,50939904.45141569
322,2798676310.130267
358,12609000.0
456,774337687.7991792
481,248387855.08090026
812,72000.0
937,1604617225.7185193
962,0.0
1179,642286.4818107191
1332,197704647.70898415
1377,14761800.0
1414,0.0
1427,0.0
1450,2174305550.075477
1475,2785995310.130267
1488,0.0
1522,0.0003905859489808653
2,1, 1, 1, 0, 9, 0.00,60.00,Holiday
9,665805823.3705932
45,40749055.0917025
207,50939904.45141569
322,2025688616.76943
358,12609000.0
456,869869552.2881445
481,376412216.11802509
812,4297437.134292602
937,1020336233.0426035
962,0.0
1179,770742.7380602469
1332,197704647.70898415
1377,0.0
1414,0.0
1427,0.0
1450,1567569395.4259756
1475,2008782179.6351374
1488,0.0
1522,0.00046591248182874576
2,1, 1, 1, 0,10, 0.00,60.00,Holiday
9,566860186.2683925
45,40749055.0917025
207,50939904.45141569
322,1865807620.8506556
358,12609000.0
456,882161693.9359278
481,277466579.0157447
812,72000.0
937,942727923.375238
962,0.0
1179,899201.064972502
1332,197704647.70898415
1377,0.0
1414,0.0
1427,0.0
1450,1446095756.1733387
1475,1853126620.8506556
1488,0.0
1522,0.000545389076821168
2,1, 1, 1, 0,11, 0.00,60.00,Holiday
9,738418516.9502827
45,162996220.36681
207,99993408.90283138
322,1631662118.8659507
358,25218000.0
456,816766441.4706192
481,277724239.9705311
812,4298818.984478221
937,792985389.041293
962,0.0
1179,1862619.7187343864
1332,197704647.70898415
1377,0.0
1414,0.0
1427,0.0
1450,1250241603.1346703
1475,1602145299.881472
1488,0.0
1522,0.001126159273460112
2,1, 1, 1, 0,12, 0.00,60.00,Holiday
9,851766643.5340964
45,162996220.36681
207,99993408.90283138
322,1495676402.053576
358,25218000.0
456,827744266.009038
481,391072366.55426469
812,4298990.757429635
937,728310770.1484568
962,0.0
1179,1991075.5899240419
1332,197704647.70898415
1377,0.0
1414,0.0
1427,0.0
1450,1144114093.572593
1475,1466159411.2961465
1488,0.0
1522,0.0012061813679424682
2,1, 1, 1, 0,13, 0.00,60.00,Holiday
9,909054713.953937
45,244494330.55021499
207,132695745.20377517
322,1341699404.9267445
358,33624000.00000001
456,1019292243.7527244
481,334159990.48956158
812,4299706.934758581
937,636576863.5169129
962,2640004.411527617
1179,2312224.6064558529
1332,197704647.70898415
1377,0.0
1414,0.0
1427,0.0
1450,1017385357.8077885
1475,1303775697.9919859
1488,0.0
1522,0.0014012543195008228
2,1, 1, 1, 0,14, 0.00,60.00,Holiday
9,899170695.7080343
45,244494330.55021499
207,132695745.20377517
322,1256599028.0592669
358,33624000.00000001
456,966168120.7888739
481,324275972.2436583
812,4299476.062085472
937,603739609.5574086
962,9306558.230161675
1179,2312216.586626781
1332,197704647.70898415
1377,0.0
1414,0.0
1427,0.0
1450,950963601.935259
1475,1218675551.9971815
1488,0.0
1522,0.0014015319205298552
2,1, 1, 1, 0,15, 0.00,60.00,Holiday
9,885647661.6278275
45,244494330.55021499
207,132695745.20377517
322,1213850590.0936709
358,33624000.00000001
456,910482882.4881796
481,310752938.16352859
812,4299709.763067452
937,584188365.7382149
962,13079503.752547065
1179,2183758.745441434
1332,197704647.70898415
1377,0.0
1414,0.0
1427,0.0
1450,917596409.8143302
1475,1175926880.3306037
1488,0.0
1522,0.0013246394494110983
2,1, 1, 1, 0,16, 0.00,60.00,Holiday
9,873545451.5760822
45,244494330.55021499
207,132695745.20377517
322,1200604460.911865
358,33624000.00000001
456,851985795.1765154
481,298650728.1117454
812,4299489.930612063
937,576074822.9289508
962,15461442.265259862
1179,2248001.3873472295
1332,197704647.70898415
1377,0.0
1414,0.0
1427,0.0
1450,907253019.0967344
1475,1162680970.981253
1488,0.0
1522,0.0013625735146496679
2,1, 1, 1, 0,17, 0.00,60.00,Holiday
9,918042973.08621
45,244494330.55021499
207,132695745.20377517
322,1190153321.870295
358,33624000.00000001
456,853060604.8979697
481,298862849.6217954
812,4299467.485140471
937,569748313.8604565
962,17351485.73813441
1179,2376447.490566787
1332,197704647.70898415
1377,44285400.0
1414,0.0
1427,0.0
1450,899091919.2143643
1475,1152229854.3851546
1488,0.0
1522,0.0014403303160302709
2,1, 1, 1, 0,18, 0.00,60.00,Holiday
9,799281331.1784356
45,162996220.36681
207,99993408.90283138
322,1700428637.2487453
358,25218000.0
456,825966530.2088177
481,279539854.19848719
812,72000.0
937,951387391.7073
962,0.0
1179,2183758.86190899
1332,197704647.70898415
1377,59047200.0
1414,0.0
1427,0.0
1450,1307284324.3639577
1475,1675138637.2487453
1488,0.0
1522,0.0013230437151508655
2,1, 1, 1, 0,19, 0.00,60.00,Holiday
9,791077889.1714209
45,81498110.183405
207,67291072.60188759
322,1813050009.9312156
358,16812000.000000005
456,884111770.344486
481,385536858.6761756
812,4298800.71251865
937,1029310871.1368096
962,0.0
1179,1605712.5727498539
1332,197704647.70898415
1377,59047200.0
1414,0.0
1427,0.0
1450,1398431134.4674957
1475,1791939209.2186969
1488,0.0
1522,0.0009687104496678541
2,1, 1, 1, 0,20, 0.00,60.00,Holiday
9,719631561.3654034
45,81498110.183405
207,67291072.60188759
322,1792305006.065006
358,16812000.000000005
456,1047441337.1257649
481,314090530.87007609
812,4298660.961646491
937,1025316564.7113342
962,0.0
1179,1734163.8802222557
1332,197704647.70898415
1377,59047200.0
1414,0.0
1427,0.0
1450,1382240438.131977
1475,1771194345.1033598
1488,0.0
1522,0.0010507278921700198
2,1, 1, 1, 0,21, 0.00,60.00,Holiday
9,687937792.6421652
45,81498110.183405
207,67291072.60188759
322,1795593308.2377506
358,16812000.000000005
456,927135296.8186659
481,282396762.1470674
812,4298254.178611451
937,1028692394.8685359
962,0.0
1179,1348801.568436897
1332,197704647.70898415
1377,59047200.0
1414,0.0
1427,0.0
1450,1384806749.4371286
1475,1774483054.059139
1488,0.0
1522,0.000820935344876592
2,1, 1, 1, 0,22, 0.00,60.00,Holiday
9,636430575.3820855
45,81498110.183405
207,67291072.60188759
322,1626928086.6725498
358,16812000.000000005
456,646258548.6733756
481,230889544.88719
812,72000.0
937,904084743.3744468
962,0.0
1179,1027656.2852957284
1332,197704647.70898415
1377,59047200.0
1414,0.0
1427,0.0
1450,1256540409.8862568
1475,1610044086.6725498
1488,0.0
1522,0.000618676009156649
2,1, 1, 1, 0,23, 0.00,60.00,Holiday
9,360173867.5557039
45,20374527.54585125
207,24526752.225707845
322,68089260.85984649
358,6304500.0
456,466745240.34712508
481,190312828.2436353
812,4297605.937194112
937,79452157.3460712
962,0.0
1179,642286.4896690645
1332,65912559.54011711
1377,59047200.0
1414,0.0
1427,0.0
1450,44879054.49989062
1475,57487154.92265238
1488,0.0
1522,0.0003923911660741063
2,1, 1, 1, 0,24, 0.00,60.00,Holiday
9,545090622.252774
45,20374527.54585125
207,24526752.225707845
322,281338301.0374114
358,6304500.0
456,553524825.4380323
481,320222338.8062446
812,72000.0
937,246495328.3196202
962,0.0
1179,385371.8943884325
1332,120919803.67473814
1377,59047200.0
1414,0.0
1427,0.0
1450,214670131.2077173
1475,274961801.0374114
1488,0.0
1522,0.00023213558980139155
2,2, 1, 2, 0, 1, 0.00,60.00,Monday
9,467695137.3668735
45,20374527.54585125
207,32702336.300943793
322,444328290.24855068
358,8406000.000000002
456,519263344.71356388
481,207292587.73818536
812,72000.0
937,360625086.2827489
962,0.0
1179,257383.32766403416
1332,148278485.7817381
1377,59047200.0
1414,0.0
1427,0.0
1450,340227208.4394654
1475,435850290.24855068
1488,0.0
1522,0.00015501821461142706
2,2, 1, 2, 0, 2, 0.00,60.00,Monday
9,418015854.3022406
45,20374527.54585125
207,32702336.300943793
322,390222421.3238065
358,8406000.000000002
456,433912688.716724
481,185401085.63915698
812,71999.99999999999
937,328096600.57855799
962,0.0
1179,321729.1596515764
1332,120490704.81609258
1377,59047200.0
1414,0.0
1427,0.0
1450,297975408.01181039
1475,381744421.3238065
1488,0.0
1522,0.0001960288236089579
2,2, 1, 2, 0, 3, 0.00,60.00,Monday
9,422843517.6496534
45,20374527.54585125
207,32702336.300943793
322,513576374.97232916
358,8406000.000000002
456,425116967.6241057
481,184079348.98252667
812,4297143.497608305
937,402418652.69929447
962,0.0
1179,321729.159478414
1332,126640104.82013759
1377,59047200.0
1414,0.0
1427,0.0
1450,391041087.3015584
1475,500873231.47472086
1488,0.0
1522,0.00019414038887548323
2,2, 1, 2, 0, 4, 0.00,60.00,Monday
9,445378108.07379147
45,20374527.54585125
207,32702336.300943793
322,560522704.8323224
358,8406000.000000002
456,431095030.5087786
481,184975558.4451035
812,72000.0
937,452916583.5337329
962,0.0
1179,257383.32774453009
1332,148278485.7817381
1377,59047200.0
1414,0.0
1427,0.0
1450,430917514.6007009
1475,552044704.8323224
1488,0.0
1522,0.00015480850469162813
2,2, 1, 2, 0, 5, 0.00,60.00,Monday
9,441471154.6043631
45,20374527.54585125
207,32702336.300943793
322,401307336.4601644
358,8406000.000000002
456,569329345.1564082
481,208856385.9413191
812,71999.99999999999
937,342284466.4140297
962,0.0
1179,257383.3277463175
1332,120490704.81609258
1377,59047200.0
1414,0.0
1427,0.0
1450,306627163.0662555
1475,392829336.4601644
1488,0.0
1522,0.00015637673220922536
2,2, 1, 2, 0, 6, 0.00,60.00,Monday
9,445206461.5525315
45,20374527.54585125
207,32702336.300943793
322,488751550.3768623
358,8406000.000000002
456,554536728.2068261
481,206442292.8854426
812,4297029.451812206
937,390281595.93806889
962,0.0
1179,257383.32720091142
1332,126640104.82013759
1377,59047200.0
1414,0.0
1427,0.0
1450,371660816.5414455
1475,476048520.9250501
1488,0.0
1522,0.00015621911224458578
2,2, 1, 2, 0, 7, 0.00,60.00,Monday
9,633115427.7471248
45,81498110.183405
207,67291072.60188759
322,1811173104.2189136
358,16812000.000000005
456,624080795.0110788
481,227574397.25269339
812,72000.0
937,1038284768.783994
962,0.0
1179,257383.32760944536
1332,197704647.70898415
1377,59047200.0
1414,0.0
1427,0.0
1450,1400303379.6126087
1475,1794289104.2189136
1488,0.0
1522,0.0001546207005765927
2,2, 1, 2, 0, 8, 0.00,60.00,Monday
9,621422555.4521078
45,81498110.183405
207,67291072.60188759
322,1567119817.016916
358,16812000.000000005
456,798617855.1177738
481,260166924.95724345
812,4297753.492994423
937,871929036.6035709
962,0.0
1179,965187.4503986763
1332,197704647.70898415
1377,14761800.0
1414,0.0
1427,0.0
1450,1206437607.9844893
1475,1546010063.5239216
1488,0.0
1522,0.0005876203102099212
2,2, 1, 2, 0, 9, 0.00,60.00,Monday
9,927318273.9292848
45,203745275.45851249
207,116344577.05330327
322,1375733711.5378977
358,29420999.999999998
456,906559675.9743815
481,409523773.7075938
812,72000.0
937,725163101.3787708
962,0.0
1179,1479947.2336911
1332,197704647.70898415
1377,0.0
1414,0.0
1427,0.0
1450,1050523893.1452106
1475,1346240711.5378977
1488,0.0
1522,0.0008910925169819399
2,2, 1, 2, 0,10, 0.00,60.00,Monday
9,1077440820.3770505
45,366741495.8253225
207,149046913.35424707
322,1173088467.7896853
358,37827000.0
456,1026598097.2608595
481,363947763.487252
812,4299321.40318371
937,591000552.241035
962,19127669.626392515
1179,2059059.3247700218
1332,197704647.70898415
1377,0.0
1414,0.0
1427,0.0
1450,882518872.1030929
1475,1130962146.3865019
1488,0.0
1522,0.0012448732947841944
2,2, 1, 2, 0,11, 0.00,60.00,Monday
9,1043155101.5125214
45,366741495.8253225
207,149046913.35424707
322,1066249913.2336068
358,37827000.0
456,896851833.3198903
481,329662044.62237188
812,4299786.3854642999
937,538499173.6467216
962,27540340.437339587
1179,2638155.2439270254
1332,197704647.70898415
1377,0.0
1414,0.0
1427,0.0
1450,799135043.3886333
1475,1024123126.8481424
1488,0.0
1522,0.0015959262285769939
2,2, 1, 2, 0,12, 0.00,60.00,Monday
9,1153357638.975601
45,366741495.8253225
207,149046913.35424707
322,988146296.0572515
358,37827000.0
456,890592610.1335316
481,439864582.08482387
812,4301536.776358294
937,494744888.62390998
962,34589391.1770428
1179,3667711.4702816328
1332,197704647.70898415
1377,0.0
1414,0.0
1427,0.0
1450,738180475.5459395
1475,946017759.2808931
1488,0.0
1522,0.002223344657406757
2,2, 1, 2, 0,13, 0.00,60.00,Monday
9,1081077331.4596983
45,366741495.8253225
207,149046913.35424707
322,965282531.5920915
358,37827000.0
456,1073984641.2600084
481,367584274.56873497
812,8531091.11948198
937,475595544.8106305
962,37469241.32536875
1179,3989344.4439751885
1332,197704647.70898415
1377,0.0
1414,0.0
1427,0.0
1450,717032430.2926856
1475,918924440.4726095
1488,0.0
1522,0.0024096012624694534
2,2, 1, 2, 0,14, 0.00,60.00,Monday
9,1071177173.1380318
45,366741495.8253225
207,149046913.35424707
322,994128347.1199046
358,37827000.0
456,1018760180.0940447
481,357684116.24710348
812,4301238.21326866
937,476608167.50846388
962,38716939.17033394
1179,3925030.985372683
1332,197704647.70898415
1377,0.0
1414,0.0
1427,0.0
1450,742838935.975072
1475,952000108.906636
1488,0.0
1522,0.002374869091657632
2,2, 1, 2, 0,15, 0.00,60.00,Monday
9,1063140816.746187
45,366741495.8253225
207,149046913.35424707
322,1025759419.8490399
358,37827000.0
456,971485099.1224108
481,349647759.85568299
812,4300458.2551924199
937,476920132.8484715
962,39417625.549952957
1179,3217253.0907209448
1332,197704647.70898415
1377,0.0
1414,0.0
1427,0.0
1450,767519826.5365412
1475,983631961.5938475
1488,0.0
1522,0.001950334447980776
2,2, 1, 2, 0,16, 0.00,60.00,Monday
9,1054289106.0602114
45,366741495.8253225
207,149046913.35424707
322,979945631.4418018
358,37827000.0
456,917731285.1164452
481,340796049.1699076
812,8528760.604654089
937,452972990.84839579
962,42427079.29313566
1179,2895542.6989236699
1332,197704647.70898415
1377,0.0
1414,0.0
1427,0.0
1450,728463959.553041
1475,933589870.8371477
1488,0.0
1522,0.0017502457710494185
2,2, 1, 2, 0,17, 0.00,60.00,Monday
9,1100787663.2421227
45,366741495.8253225
207,149046913.35424707
322,951538133.4510434
358,37827000.0
456,921157617.0051625
481,343009206.35178026
812,4300572.593840661
937,445356309.88138988
962,43607060.48206713
1179,2959878.5634888906
1332,197704647.70898415
1377,44285400.0
1414,0.0
1427,0.0
1450,709589599.7763857
1475,909410560.8572028
1488,0.0
1522,0.0017886934791524088
2,2, 1, 2, 0,18, 0.00,60.00,Monday
9,1115864971.5147587
45,366741495.8253225
207,149046913.35424707
322,996326503.9447594
358,37827000.0
456,922650792.4365285
481,343324714.62437728
812,4300195.419960989
937,462384451.26912096
962,43194229.473360758
1179,3024212.2433561698
1332,197704647.70898415
1377,59047200.0
1414,0.0
1427,0.0
1450,744538594.0979834
1475,954199308.5247984
1488,0.0
1522,0.0018277496459032264
2,2, 1, 2, 0,19, 0.00,60.00,Monday
9,1064766196.9754692
45,244494330.55021499
207,132695745.20377517
322,1020850906.8066639
358,33624000.00000001
456,934283340.6762275
481,430824273.51086089
812,4300049.207312546
937,483303187.14354088
962,33455720.167483376
1179,2702509.299879162
1332,197704647.70898415
1377,59047200.0
1414,0.0
1427,0.0
1450,766955189.636416
1475,982926857.5993513
1488,0.0
1522,0.0016342080778961324
2,2, 1, 2, 0,20, 0.00,60.00,Monday
9,1009898958.9300269
45,244494330.55021499
207,132695745.20377517
322,1009501927.7490896
358,33624000.00000001
456,1157540440.5431512
481,375957035.46572789
812,4299234.931320289
937,491219509.35102227
962,31491447.028822815
1179,2187742.5944673607
1332,197704647.70898415
1377,59047200.0
1414,0.0
1427,0.0
1450,758099612.5020974
1475,971578692.8177693
1488,0.0
1522,0.0013246729979313629
2,2, 1, 2, 0,21, 0.00,60.00,Monday
9,903874936.9030749
45,203745275.45851249
207,116344577.05330327
322,1008599171.6591284
358,29420999.999999998
456,994364756.218386
481,327033236.68098887
812,4299454.108866439
937,499152723.18849697
962,23091785.6042848
1179,2123412.2608639106
1332,197704647.70898415
1377,59047200.0
1414,0.0
1427,0.0
1450,760673878.0993028
1475,974878717.5502621
1488,0.0
1522,0.0012860652337576516
2,2, 1, 2, 0,22, 0.00,60.00,Monday
9,652235060.9698161
45,81498110.183405
207,67291072.60188759
322,897201585.8938004
358,16812000.000000005
456,662351134.7715092
481,246694030.47464565
812,72000.0
937,416226621.0927386
962,776350.2197715745
1179,1479951.610676055
1332,197704647.70898415
1377,59047200.0
1414,0.0
1427,0.0
1450,686937952.4581431
1475,880317585.8938004
1488,0.0
1522,0.000893729936811015
2,2, 1, 2, 0,23, 0.00,60.00,Monday
9,330933135.05706
45,20374527.54585125
207,32702336.300943793
322,14782156.73262742
358,8406000.000000002
456,496301250.3271198
481,212979278.19287063
812,4297825.898581206
937,5439507.798987241
962,0.0
1179,836495.7872257844
1332,5829793.016888202
1377,59047200.0
1414,0.0
1427,0.0
1450,1635418.310043284
1475,2078330.834046212
1488,0.0
1522,0.000506062943060457
2,2, 1, 2, 0,24, 0.00,60.00,Monday
9,581586232.4082631
45,20374527.54585125
207,32702336.300943793
322,122443227.52632803
358,8406000.000000002
456,569523429.8847182
481,340360510.75285699
812,72000.0
937,145536830.11347843
962,0.0
1179,514766.6532879671
1332,129101657.80830074
1377,59047200.0
1414,0.0
1427,0.0
1450,88988128.35366747
1475,113965227.52632803
1488,0.0
1522,0.00031029177289709455
2,3, 1, 3, 0, 1, 0.00,60.00,Tuesday
9,462950590.4803113
45,20374527.54585125
207,32702336.300943793
322,172907501.1859088
358,8406000.000000002
456,548532075.6877891
481,227455453.91310639
812,72000.0
937,186722886.87609748
962,0.0
1179,257843.1725434436
1332,123371072.72025278
1377,59047200.0
1414,0.0
1427,0.0
1450,128358114.57701457
1475,164429501.1859088
1488,0.0
1522,0.00015704792436364848
2,3, 1, 3, 0, 2, 0.00,60.00,Tuesday
9,422352112.59486129
45,20374527.54585125
207,32702336.300943793
322,200488757.06240625
358,8406000.000000002
456,464760233.90761438
481,205017710.9181277
812,4297143.077472182
937,191686162.1115256
962,0.0
1179,322303.9654344995
1332,105210337.82974455
1377,59047200.0
1414,0.0
1427,0.0
1450,146676859.8751147
1475,187785613.98493404
1488,0.0
1522,0.00019401253390642908
2,3, 1, 3, 0, 3, 0.00,60.00,Tuesday
9,458056327.43675747
45,20374527.54585125
207,32702336.300943793
322,292370898.3436365
358,8406000.000000002
456,458993608.27545776
481,204720032.1641122
812,72000.0
937,274916223.09673437
962,0.0
1179,322303.96569367215
1332,141212231.4256564
1377,59047200.0
1414,0.0
1427,0.0
1450,221623591.23987726
1475,283892898.3436365
1488,0.0
1522,0.00019376282646679717
2,3, 1, 3, 0, 4, 0.00,60.00,Tuesday
9,448133947.4737265
45,20374527.54585125
207,32702336.300943793
322,290165666.94623878
358,8406000.000000002
456,462130716.89549216
481,203875750.83291549
812,72000.0
937,266634693.76547767
962,0.0
1179,257843.17259074888
1332,132134132.79385929
1377,59047200.0
1414,0.0
1427,0.0
1450,219864498.6348393
1475,281687666.94623878
1488,0.0
1522,0.00015665984129849085
2,3, 1, 3, 0, 5, 0.00,60.00,Tuesday
9,507376022.5023032
45,20374527.54585125
207,32702336.300943793
322,318522567.13209637
358,8406000.000000002
456,906861647.4255022
481,281040421.1858793
812,4297063.763039706
937,261530282.1709741
962,0.0
1179,257843.17189331528
1332,114211537.46947292
1377,59047200.0
1414,0.0
1427,0.0
1450,238818849.51194317
1475,305819503.36905667
1488,0.0
1522,0.00015598759375765796
2,3, 1, 3, 0, 6, 0.00,60.00,Tuesday
9,535603977.6626786
45,20374527.54585125
207,32702336.300943793
322,486334431.86109736
358,8406000.000000002
456,892468328.226841
481,275201428.03399077
812,72000.0
937,388370671.6415386
962,0.0
1179,257843.17255239667
1332,148278485.7817381
1377,59047200.0
1414,0.0
1427,0.0
1450,373009603.25609698
1475,477856431.86109736
1488,0.0
1522,0.0001547334875835225
2,3, 1, 3, 0, 7, 0.00,60.00,Tuesday
9,694166405.4822179
45,81498110.183405
207,67291072.60188759
322,1812984546.4381126
358,16812000.000000005
456,961686952.1803143
481,288625374.98778507
812,72000.0
937,989894487.1198613
962,0.0
1179,257843.1717536553
1332,197704647.70898415
1377,59047200.0
1414,0.0
1427,0.0
1450,1401716825.5824633
1475,1796100546.4381126
1488,0.0
1522,0.00015610964855959907
2,3, 1, 3, 0, 8, 0.00,60.00,Tuesday
9,654843831.5709629
45,81498110.183405
207,67291072.60188759
322,1660799371.7636355
358,16812000.000000005
456,1036059936.8600662
481,293588201.0761032
812,4298000.61953842
937,878654750.7329357
962,0.0
1179,966910.8262989569
1332,197704647.70898415
1377,14761800.0
1414,0.0
1427,0.0
1450,1279527483.2742687
1475,1639689371.1440969
1488,0.0
1522,0.0005829734286048145
2,3, 1, 3, 0, 9, 0.00,60.00,Tuesday
9,927691769.7104002
45,203745275.45851249
207,116344577.05330327
322,1539180827.8184167
358,29420999.999999998
456,909225853.7428237
481,409897269.48870107
812,4298377.786773298
937,757065371.9251065
962,0.0
1179,1482598.1632197034
1332,197704647.70898415
1377,0.0
1414,0.0
1427,0.0
1450,1174763412.468452
1475,1505461450.0316432
1488,0.0
1522,0.0008991910570649653
2,3, 1, 3, 0,10, 0.00,60.00,Tuesday
9,1076202933.3654698
45,366741495.8253225
207,149046913.35424707
322,1390940638.432438
358,37827000.0
456,1022929988.5434055
481,362709876.47567149
812,72000.0
937,639066482.80591
962,11043617.52982495
1179,2062730.637234249
1332,197704647.70898415
1377,0.0
1414,0.0
1427,0.0
1450,1055812983.1628633
1475,1353041638.432438
1488,0.0
1522,0.0012443539938679586
2,3, 1, 3, 0,11, 0.00,60.00,Tuesday
9,1041532288.9256317
45,366741495.8253225
207,149046913.35424707
322,1324827409.8254772
358,37827000.0
456,894675030.7053952
481,328039232.035481
812,4300045.585441691
937,598889390.6242814
962,18087452.95891895
1179,2642880.604855246
1332,197704647.70898415
1377,0.0
1414,0.0
1427,0.0
1450,1000912790.0224906
1475,1282700364.2400356
1488,0.0
1522,0.0015970532966327967
2,3, 1, 3, 0,12, 0.00,60.00,Tuesday
9,1151953765.5462836
45,366741495.8253225
207,149046913.35424707
322,1250569939.0108474
358,37827000.0
456,889676110.9786466
481,438460708.65551307
812,8531126.03395625
937,558396989.8366456
962,25107720.0295399
1179,3674264.7025666509
1332,197704647.70898415
1377,0.0
1414,0.0
1427,0.0
1450,939659009.4949619
1475,1204211812.9768913
1488,0.0
1522,0.002216755019837958
2,3, 1, 3, 0,13, 0.00,60.00,Tuesday
9,1078307194.8303316
45,366741495.8253225
207,149046913.35424707
322,1195980917.6018394
358,37827000.0
456,1066459679.774548
481,364814137.93936517
812,4302186.650959279
937,536659383.11691358
962,29476906.40077929
1179,3996504.9447805637
1332,197704647.70898415
1377,0.0
1414,0.0
1427,0.0
1450,900355346.3637413
1475,1153851730.95088
1488,0.0
1522,0.0024128818705725738
2,3, 1, 3, 0,14, 0.00,60.00,Tuesday
9,1067967515.0212934
45,366741495.8253225
207,149046913.35424707
322,1172947307.538924
358,37827000.0
456,1012970950.9490837
481,354474458.13036188
812,8530616.923653484
937,522988375.15375718
962,32454211.75894894
1179,3932038.119867089
1332,197704647.70898415
1377,0.0
1414,0.0
1427,0.0
1450,879077422.9669416
1475,1126589690.6152707
1488,0.0
1522,0.0023781856709577519
2,3, 1, 3, 0,15, 0.00,60.00,Tuesday
9,1054205220.3273332
45,366741495.8253225
207,149046913.35424707
322,1155336006.361062
358,37827000.0
456,956065119.7438569
481,340712163.43683508
812,4300292.953371841
937,514688044.734265
962,34597350.19126019
1179,3222956.311137073
1332,197704647.70898415
1377,0.0
1414,0.0
1427,0.0
1450,868631655.9485126
1475,1113208713.40769
1488,0.0
1522,0.0019445894603639129
2,3, 1, 3, 0,16, 0.00,60.00,Tuesday
9,1041911801.3073902
45,366741495.8253225
207,149046913.35424707
322,1134797887.885109
358,37827000.0
456,896599043.3250358
481,328418744.41708579
812,4300336.447775939
937,501403107.3726715
962,37341671.983839917
1179,2900720.5264912487
1332,197704647.70898415
1377,0.0
1414,0.0
1427,0.0
1450,852601644.8253423
1475,1092670551.437333
1488,0.0
1522,0.0017509448694326413
2,3, 1, 3, 0,17, 0.00,60.00,Tuesday
9,1086237557.6221238
45,366741495.8253225
207,149046913.35424707
322,1136569688.3426073
358,37827000.0
456,896803367.4757981
481,328459100.7317794
812,4300789.712813332
937,503489580.8453835
962,38136003.09405643
1179,2965157.1653406966
1332,197704647.70898415
1377,44285400.0
1414,0.0
1427,0.0
1450,853979882.5838904
1475,1094441898.6297942
1488,0.0
1522,0.0017906299627490673
2,3, 1, 3, 0,18, 0.00,60.00,Tuesday
9,1101003372.5974508
45,366741495.8253225
207,149046913.35424707
322,1148303928.4358719
358,37827000.0
456,896823443.8443127
481,328463115.7070662
812,4300401.017552973
937,512225287.57717838
962,37677362.99581045
1179,3029634.8928567327
1332,197704647.70898415
1377,59047200.0
1414,0.0
1427,0.0
1450,863133825.3422453
1475,1106176527.418319
1488,0.0
1522,0.0018307070969216702
2,3, 1, 3, 0,19, 0.00,60.00,Tuesday
9,1051604278.0621
45,244494330.55021499
207,132695745.20377517
322,1193052617.2583853
358,33624000.00000001
456,914899521.6471613
481,417662354.59749
812,4300336.242622602
937,539184987.3366056
962,26389685.623629877
1179,2707351.672935174
1332,197704647.70898415
1377,59047200.0
1414,0.0
1427,0.0
1450,901332201.6083099
1475,1155128281.0157626
1488,0.0
1522,0.0016357855525206246
2,3, 1, 3, 0,20, 0.00,60.00,Tuesday
9,969863626.0063586
45,244494330.55021499
207,132695745.20377517
322,1224270398.845502
358,33624000.00000001
456,990674082.9585961
481,335921702.5420613
812,4299650.145549343
937,559685190.0753267
962,22623630.90484035
1179,2191663.567411873
1332,197704647.70898415
1377,59047200.0
1414,0.0
1427,0.0
1450,925694495.2169135
1475,1186346748.6999527
1488,0.0
1522,0.001322895120945795
2,3, 1, 3, 0,21, 0.00,60.00,Tuesday
9,866371131.6741482
45,203745275.45851249
207,116344577.05330327
322,1254804799.2426468
358,29420999.999999998
456,841175945.7450099
481,289529431.4520637
812,4299198.172407701
937,576911352.5202556
962,12895846.68476686
1179,2127192.65501137
1332,197704647.70898415
1377,59047200.0
1414,0.0
1427,0.0
1450,952802222.2725716
1475,1221084601.070239
1488,0.0
1522,0.0012847558132021785
2,3, 1, 3, 0,22, 0.00,60.00,Tuesday
9,619497035.5770592
45,81498110.183405
207,67291072.60188759
322,1180201019.8996776
358,16812000.000000005
456,548360180.2355486
481,213956005.08188338
812,4298275.409969152
937,515646522.2067144
962,0.0
1179,1482591.4223370788
1332,197704647.70898415
1377,59047200.0
1414,0.0
1427,0.0
1450,904480110.3664293
1475,1159090744.4897085
1488,0.0
1522,0.0008989419001749943
2,3, 1, 3, 0,23, 0.00,60.00,Tuesday
9,370211258.915103
45,20374527.54585125
207,32702336.300943793
322,63461280.385500628
358,8406000.000000002
456,468638731.558604
481,191906017.49217568
812,72000.0
937,76432491.56665145
962,0.0
1179,837990.3012436992
1332,66181177.575629059
1377,59047200.0
1414,0.0
1427,0.0
1450,42924921.99159088
1475,54983280.385500628
1488,0.0
1522,0.0005032752708300644