Program Version,EnergyPlus, Version 9.2.0-921312fa1d, YMD=2020.12.22 17:58
1,5,Environment Title[],Latitude[deg],Longitude[deg],Time Zone[],Elevation[m]
2,8,Day of Simulation[],Month[],Day of Month[],DST Indicator[1=yes 0=no],Hour[],StartMinute[],EndMinute[],DayType
3,5,Cumulative Day of Simulation[],Month[],Day of Month[],DST Indicator[1=yes 0=no],DayType  ! When Daily Report Variables Requested
4,2,Cumulative Days of Simulation[],Month[]  ! When Monthly Report Variables Requested
5,1,Cumulative Days of Simulation[] ! When Run Period Report Variables Requested
6,1,Calendar Year of Simulation[] ! When Annual Report Variables Requested
342,1,BACK_SPACE,Zone Thermostat Heating Setpoint Temperature [C] !Hourly
343,1,BACK_SPACE,Zone Thermostat Cooling Setpoint Temperature [C] !Hourly
382,1,CORE_RETAIL,Zone Thermostat Heating Setpoint Temperature [C] !Hourly
383,1,CORE_RETAIL,Zone Thermostat Cooling Setpoint Temperature [C] !Hourly
422,1,FRONT_ENTRY,Zone Thermostat Heating Setpoint Temperature [C] !Hourly
423,1,FRONT_ENTRY,Zone Thermostat Cooling Setpoint Temperature [C] !Hourly
462,1,FRONT_RETAIL,Zone Thermostat Heating Setpoint Temperature [C] !Hourly
463,1,FRONT_RETAIL,Zone Thermostat Cooling Setpoint Temperature [C] !Hourly
502,1,POINT_OF_SALE,Zone Thermostat Heating Setpoint Temperature [C] !Hourly
503,1,POINT_OF_SALE,Zone Thermostat Cooling Setpoint Temperature [C] !Hourly
9,1,Electricity:Facility [J] !Hourly
695,1,Heating:Electricity [J] !Hourly
798,1,Cooling:Electricity [J] !Hourly
45,1,InteriorLights:Electricity [J] !Hourly
760,1,ExteriorLights:Electricity [J] !Hourly
182,1,InteriorEquipment:Electricity [J] !Hourly
629,1,Fans:Electricity [J] !Hourly
709,1,Gas:Facility [J] !Hourly
733,1,Heating:Gas [J] !Hourly
294,1,Heating:EnergyTransfer [J] !Hourly
319,1,Cooling:EnergyTransfer [J] !Hourly
682,1,HeatingCoils:EnergyTransfer [J] !Hourly
785,1,CoolingCoils:EnergyTransfer [J] !Hourly
1530,1,PSZ-AC:1,Air System Total Heating Energy [J] !Hourly
1531,1,PSZ-AC:1,Air System Total Cooling Energy [J] !Hourly
1532,1,PSZ-AC:2,Air System Total Heating Energy [J] !Hourly
1533,1,PSZ-AC:2,Air System Total Cooling Energy [J] !Hourly
1534,1,PSZ-AC:3,Air System Total Heating Energy [J] !Hourly
1535,1,PSZ-AC:3,Air System Total Cooling Energy [J] !Hourly
1536,1,PSZ-AC:4,Air System Total Heating Energy [J] !Hourly
1537,1,PSZ-AC:4,Air System Total Cooling Energy [J] !Hourly
End of Data Dictionary
1,RUNPERIOD 1,  41.98, -87.92,  -6.00, 201.00
2,1, 1, 1, 0, 1, 0.00,60.00,Holiday
342,15.6
343,30.0
382,15.6
383,30.0
422,15.6
423,90.0
462,15.6
463,30.0
502,15.6
503,30.0
1530,89836950.10925386
1531,0.0
1532,157189313.21467556
1533,0.0
1534,40500035.61085866
1535,0.0
1536,38721043.680778089
1537,0.0
9,73144896.36155944
45,13347692.9325
182,6462622.566179999
294,322634404.2012017
319,0.0
629,16614301.484574907
682,310408699.4457279
695,738279.3783045386
709,394568835.5207232
733,394568835.5207232
760,35982000.0
785,0.0
798,0.0
2,1, 1, 1, 0, 2, 0.00,60.00,Holiday
342,15.6
343,30.0
382,15.6
383,30.0
422,15.6
423,90.0
462,15.6
463,30.0
502,15.6
503,30.0
1530,85742698.31295513
1531,0.0
1532,173599224.03151829
1533,0.0
1534,38998635.69223016
1535,0.0
1536,39826682.45808843
1537,0.0
9,74405522.5034209
45,13347692.9325
182,6462622.566179999
294,335662663.96068289
319,0.0
629,17504592.159480726
682,321808642.1170023
695,1108614.845260181
709,408721855.0223281
733,408721855.0223281
760,35982000.0
785,0.0
798,0.0
2,1, 1, 1, 0, 3, 0.00,60.00,Holiday
342,15.6
343,30.0
382,15.6
383,30.0
422,15.6
423,90.0
462,15.6
463,30.0
502,15.6
503,30.0
1530,114927398.46369012
1531,0.0
1532,235548520.379054
1533,0.0
1534,52673278.68360989
1535,0.0
1536,53918300.683882649
1537,0.0
9,80561092.57816527
45,13347692.9325
182,6462622.566179999
294,450979509.4432788
319,0.0
629,23578130.234228229
682,434717393.7576973
695,1190646.8452570379
709,552514046.7988722
733,552514046.7988722
760,35982000.0
785,0.0
798,0.0
2,1, 1, 1, 0, 4, 0.00,60.00,Holiday
342,15.6
343,30.0
382,15.6
383,30.0
422,15.6
423,90.0
462,15.6
463,30.0
502,15.6
503,30.0
1530,85508080.81529129
1531,0.0
1532,175458595.58376447
1533,0.0
1534,39296088.9484888
1535,0.0
1536,40184507.26196109
1537,0.0
9,74704599.15909854
45,13347692.9325
182,6462622.566179999
294,338077383.0936038
319,0.0
629,17645852.997572993
682,324105229.2112108
695,1266430.6628455467
709,411443647.42436167
733,411443647.42436167
760,35982000.0
785,0.0
798,0.0
2,1, 1, 1, 0, 5, 0.00,60.00,Holiday
342,15.6
343,30.0
382,15.6
383,30.0
422,15.6
423,90.0
462,15.6
463,30.0
502,15.6
503,30.0
1530,115569605.75312881
1531,0.0
1532,239655178.78890748
1533,0.0
1534,53393307.14668386
1535,0.0
1536,54298581.09349095
1537,0.0
9,81034850.64226529
45,13347692.9325
182,6462622.566179999
294,456906931.7780252
319,0.0
629,23905834.068680198
682,440384918.7248651
695,1336701.0749051034
709,559558881.2334367
733,559558881.2334367
760,35982000.0
785,0.0
798,0.0
2,1, 1, 1, 0, 6, 0.00,60.00,Holiday
342,15.6
343,30.0
382,15.6
383,30.0
422,15.6
423,90.0
462,15.6
463,30.0
502,15.6
503,30.0
1530,85965474.98869828
1531,0.0
1532,177768003.55058614
1533,0.0
1534,39391440.71135021
1535,0.0
1536,40169538.0946457
1537,0.0
9,75006471.13498983
45,13347692.9325
182,6462622.566179999
294,341051065.75199469
319,0.0
629,17817274.35073687
682,326911443.21654978
695,1396881.285572967
709,414871668.2997857
733,414871668.2997857
760,35982000.0
785,0.0
798,0.0
2,1, 1, 1, 0, 7, 0.00,60.00,Holiday
342,15.6
343,30.0
382,15.6
383,30.0
422,15.6
423,90.0
462,15.6
463,30.0
502,15.6
503,30.0
1530,117499102.14662625
1531,0.0
1532,244848045.37833614
1533,0.0
1534,53679951.32278195
1535,0.0
1536,54722318.97484328
1537,0.0
9,81600999.37720543
45,13347692.9325
182,6462622.566179999
294,464811425.57948938
319,0.0
629,24340573.660505333
682,447914333.3165332
695,1468110.2180201088
709,569021645.192259
733,569021645.192259
760,35982000.0
785,0.0
798,0.0
2,1, 1, 1, 0, 8, 0.00,60.00,Holiday
342,15.6
343,30.0
382,15.6
383,30.0
422,15.6
423,90.0
462,15.6
463,30.0
502,15.6
503,30.0
1530,86887346.77285686
1531,0.0
1532,180559553.5541971
1533,0.0
1534,39245196.387156527
1535,0.0
1536,40061917.45404866
1537,0.0
9,51195629.95140862
45,13347692.9325
182,6462622.566179999
294,344420817.39286157
319,0.0
629,18019035.369962988
682,330144636.8174971
695,1372279.0827656312
709,419056156.076046
733,419056156.076046
760,11994000.0
785,0.0
798,0.0
2,1, 1, 1, 0, 9, 0.00,60.00,Holiday
342,21.0
343,24.0
382,21.0
383,24.0
422,21.0
423,90.0
462,21.0
463,24.0
502,21.0
503,24.0
1530,197562314.5326251
1531,0.0
1532,710283092.1200416
1533,0.0
1534,94326177.45456945
1535,0.0
1536,96786132.88823536
1537,0.0
9,119744241.64694372
45,26695385.865
182,12925245.132359999
294,685553439.2768538
319,0.0
629,73367148.62066823
682,1032384409.3401523
695,6756462.028915498
709,1309155476.820805
733,1309155476.820805
760,0.0
785,0.0
798,0.0
2,1, 1, 1, 0,10, 0.00,60.00,Holiday
342,21.0
343,24.0
382,21.0
383,24.0
422,21.0
423,90.0
462,21.0
463,24.0
502,21.0
503,24.0
1530,145748611.90892948
1531,0.0
1532,560040893.3875258
1533,0.0
1534,66159163.65496844
1535,0.0
1536,68861425.64205422
1537,0.0
9,116797121.68578622
45,26695385.865
182,12925245.132359999
294,461752924.5480047
319,0.0
629,73367148.62066823
682,771289666.9769943
695,3809342.067758007
709,979994798.1338108
733,979994798.1338108
760,0.0
785,0.0
798,0.0
2,1, 1, 1, 0,11, 0.00,60.00,Holiday
342,21.0
343,24.0
382,21.0
383,24.0
422,21.0
423,90.0
462,21.0
463,24.0
502,21.0
503,24.0
1530,126605238.59901947
1531,0.0
1532,479874986.3709905
1533,0.0
1534,51642690.89731953
1535,0.0
1536,55979828.45106359
1537,0.0
9,208236930.8427016
45,106781543.46
182,25850490.264719998
294,358892819.5332114
319,0.0
629,73367148.62066823
682,643010723.1314652
695,2237748.497313402
709,818427620.5359023
733,818427620.5359023
760,0.0
785,0.0
798,0.0
2,1, 1, 1, 0,12, 0.00,60.00,Holiday
342,21.0
343,24.0
382,21.0
383,24.0
422,21.0
423,90.0
462,21.0
463,24.0
502,21.0
503,24.0
1530,115136267.89079541
1531,0.0
1532,433887027.63923427
1533,0.0
1534,45491787.82499471
1535,0.0
1536,49693211.18564585
1537,0.0
9,207675377.1753547
45,106781543.46
182,25850490.264719998
294,311023346.03370067
319,0.0
629,73367148.62066823
682,572554719.6863974
695,1676194.8299664998
709,729217990.0624697
733,729217990.0624697
760,0.0
785,0.0
798,0.0
2,1, 1, 1, 0,13, 0.00,60.00,Holiday
342,21.0
343,24.0
382,21.0
383,24.0
422,21.0
423,90.0
462,21.0
463,24.0
502,21.0
503,24.0
1530,103492787.0315423
1531,0.0
1532,374585731.2865376
1533,0.0
1534,40638908.52361428
1535,0.0
1536,45905163.647796068
1537,0.0
9,270001131.6649711
45,160172315.18999998
182,34467320.35296
294,249721119.4773057
319,0.0
629,73367148.62066823
682,493287168.30659249
695,1994347.5013429386
709,627461988.9340074
733,627461988.9340074
760,0.0
785,0.0
798,0.0
2,1, 1, 1, 0,14, 0.00,60.00,Holiday
342,21.0
343,24.0
382,21.0
383,24.0
422,21.0
423,90.0
462,21.0
463,24.0
502,21.0
503,24.0
1530,95936739.90263012
1531,0.0
1532,343678727.7252874
1533,0.0
1534,38750638.8062045
1535,0.0
1536,44080557.10659718
1537,0.0
9,270270201.38342627
45,160172315.18999998
182,34467320.35296
294,222478500.3304807
319,0.0
629,73367148.62066822
682,451380311.0762783
695,2263417.219798041
709,573509290.1618228
733,573509290.1618228
760,0.0
785,0.0
798,0.0
2,1, 1, 1, 0,15, 0.00,60.00,Holiday
342,21.0
343,24.0
382,21.0
383,24.0
422,21.0
423,90.0
462,21.0
463,24.0
502,21.0
503,24.0
1530,91646978.20466106
1531,0.0
1532,327443995.5465515
1533,0.0
1534,37500855.330700587
1535,0.0
1536,42820541.70527229
1537,0.0
9,270318556.67397007
45,160172315.18999998
182,34467320.35296
294,205575999.50047816
319,0.0
629,73367148.62066823
682,428394373.6132854
695,2311772.510341838
709,544058587.8776999
733,544058587.8776999
760,0.0
785,0.0
798,0.0
2,1, 1, 1, 0,16, 0.00,60.00,Holiday
342,21.0
343,24.0
382,21.0
383,24.0
422,21.0
423,90.0
462,21.0
463,24.0
502,21.0
503,24.0
1530,89483041.37058926
1531,0.0
1532,320653115.365387
1533,0.0
1534,37767851.88489822
1535,0.0
1536,43088415.79505013
1537,0.0
9,270481055.6286526
45,160172315.18999998
182,34467320.35296
294,197236884.04559715
319,0.0
629,73367148.62066823
682,420136926.1967127
695,2474271.4650243998
709,533246641.5477579
733,533246641.5477579
760,0.0
785,0.0
798,0.0
2,1, 1, 1, 0,17, 0.00,60.00,Holiday
342,21.0
343,24.0
382,21.0
383,24.0
422,21.0
423,90.0
462,21.0
463,24.0
502,21.0
503,24.0
1530,87726045.03993434
1531,0.0
1532,315616465.5142568
1533,0.0
1534,38037632.84378608
1535,0.0
1536,43423172.9281583
1537,0.0
9,294635634.20779976
45,160172315.18999998
182,34467320.35296
294,191178524.06567715
319,0.0
629,73367148.62066823
682,414114396.6860678
695,2640850.044171581
709,525292511.3655888
733,525292511.3655888
760,23988000.0
785,0.0
798,0.0
2,1, 1, 1, 0,18, 0.00,60.00,Holiday
342,21.0
343,24.0
382,21.0
383,24.0
422,21.0
423,90.0
462,21.0
463,24.0
502,21.0
503,24.0
1530,137434949.4670334
1531,0.0
1532,456092011.5959786
1533,0.0
1534,62186928.67942327
1535,0.0
1536,66554186.72556242
1537,0.0
9,243366923.416996
45,106781543.46
182,25850490.264719998
294,422723011.5555409
319,0.0
629,73367148.62066823
682,650324047.8553652
695,1385741.0716077844
709,828219117.0079416
733,828219117.0079416
760,35982000.0
785,0.0
798,0.0
2,1, 1, 1, 0,19, 0.00,60.00,Holiday
342,21.0
343,24.0
382,21.0
383,24.0
422,21.0
423,90.0
462,21.0
463,24.0
502,21.0
503,24.0
1530,143336487.9974164
1531,0.0
1532,488352606.7139759
1533,0.0
1534,67613622.34201063
1535,0.0
1536,70785256.44981383
1537,0.0
9,181673648.3449181
45,53390771.73
182,17233660.17648
294,463583944.95308879
319,0.0
629,73367148.62066823
682,698458271.6367484
695,1700067.8177698693
709,889217133.611211
733,889217133.611211
760,35982000.0
785,0.0
798,0.0
2,1, 1, 1, 0,20, 0.00,60.00,Holiday
342,15.6
343,30.0
382,15.6
383,30.0
422,15.6
423,90.0
462,15.6
463,30.0
502,15.6
503,30.0
1530,18221351.78690506
1531,0.0
1532,0.0
1533,0.0
1534,6793532.035105345
1535,0.0
1536,9430174.068247129
1537,0.0
9,57117564.45835808
45,13347692.9325
182,6462622.566179999
294,34315368.21836089
319,0.0
629,1325248.959678086
682,33119808.930579764
695,0.0
709,41960812.04090593
733,41960812.04090593
760,35982000.0
785,0.0
798,0.0
2,1, 1, 1, 0,21, 0.00,60.00,Holiday
342,15.600000000000002
343,30.000000000000005
382,15.600000000000002
383,30.000000000000005
422,15.600000000000002
423,90.00000000000002
462,15.600000000000002
463,30.000000000000005
502,15.600000000000002
503,30.000000000000005
1530,46735915.339251417
1531,0.0
1532,31298024.69655628
1533,0.0
1534,19141134.413454988
1535,0.0
1536,19326262.943505087
1537,0.0
9,61088784.05621549
45,13347692.9325
182,6462622.566179999
294,115537549.15986307
319,0.0
629,5296468.557535496
682,111204868.83523327
695,0.0
709,141383589.37940587
733,141383589.37940587
760,35982000.0
785,0.0
798,0.0
2,1, 1, 1, 0,22, 0.00,60.00,Holiday
342,15.600000000000004
343,30.000000000000005
382,15.600000000000004
383,30.000000000000005
422,15.600000000000004
423,90.0
462,15.600000000000004
463,30.000000000000005
502,15.600000000000004
503,30.000000000000005
1530,39963090.067618537
1531,0.0
1532,70217541.62634857
1533,0.0
1534,17005681.838678458
1535,0.0
1536,20188088.238051803
1537,0.0
9,63274310.37396113
45,13347692.9325
182,6462622.566179999
294,146171171.0241812
319,0.0
629,7481994.875281142
682,139892406.89541764
695,0.0
709,178201541.7488505
733,178201541.7488505
760,35982000.0
785,0.0
798,0.0
2,1, 1, 1, 0,23, 0.00,60.00,Holiday
342,15.600000000000002
343,30.000000000000005
382,15.600000000000002
383,30.000000000000005
422,15.600000000000002
423,90.00000000000002
462,15.600000000000002
463,30.000000000000005
502,15.600000000000002
503,30.000000000000005
1530,57715794.624377999
1531,0.0
1532,62181842.043887037
1533,0.0
1534,24941668.54191529
1535,0.0
1536,24106273.673037359
1537,0.0
9,64003465.290082018
45,13347692.9325
182,6462622.566179999
294,167393717.2471026
319,0.0
629,8137711.359976469
682,160908301.85320015
695,73438.43142555359
709,204685156.2102812
733,204685156.2102812
760,35982000.0
785,0.0
798,0.0
2,1, 1, 1, 0,24, 0.00,60.00,Holiday
342,15.6
343,30.0
382,15.6
383,30.0
422,15.6
423,90.0
462,15.6
463,30.0
502,15.6
503,30.0
1530,45675299.76016508
1531,0.0
1532,96666635.58056216
1533,0.0
1534,20129865.04832253
1535,0.0
1536,23791127.79116989
1537,0.0
9,65753950.621997538
45,13347692.9325
182,6462622.566179999
294,184739990.70774985
319,0.0
629,9682223.940124914
682,176897494.35971786
695,279411.1831926238
709,225078014.65618608
733,225078014.65618608
760,35982000.0
785,0.0
798,0.0
2,2, 1, 2, 0, 1, 0.00,60.00,Tuesday
342,15.6
343,30.0
382,15.6
383,30.0
422,15.6
423,90.0
462,15.6
463,30.0
502,15.6
503,30.0
1530,68594760.84286827
1531,0.0
1532,86060695.5400206
1533,0.0
1534,30327041.25787545
1535,0.0
1536,29200563.64886278
1537,0.0
9,68918434.43513567
45,13347692.9325
182,8616830.08824
294,212289018.30917115
319,0.0
629,10499029.707876809
682,204194292.22470007
695,472881.7065188637
709,259344471.55908267
733,259344471.55908267
760,35982000.0
785,0.0
798,0.0
2,2, 1, 2, 0, 2, 0.00,60.00,Tuesday
342,15.6
343,30.0
382,15.6
383,30.0
422,15.6
423,90.0
462,15.6
463,30.0
502,15.6
503,30.0
1530,53804909.44314401
1531,0.0
1532,128540525.53055428
1533,0.0
1534,23946811.741871627
1535,0.0
1536,28249053.803763138
1537,0.0
9,70876300.26190152
45,13347692.9325
182,8616830.08824
294,232372087.03471793
319,0.0
629,12343727.789349864
682,222821001.11822499
695,586049.4518116542
709,283305807.2193125
733,283305807.2193125
760,35982000.0
785,0.0
798,0.0
2,2, 1, 2, 0, 3, 0.00,60.00,Tuesday
342,15.6
343,30.0
382,15.6
383,30.0
422,15.6
423,90.0
462,15.6
463,30.0
502,15.6
503,30.0
1530,72685097.34923774
1531,0.0
1532,96279878.86934519
1533,0.0
1534,32459699.04508008
1535,0.0
1536,30906534.81715993
1537,0.0
9,70054954.96004884
45,13347692.9325
182,8616830.08824
294,230172792.68194676
319,0.0
629,11457121.824266255
682,221562777.30803017
695,651310.115042586
709,281264545.7342606
733,281264545.7342606
760,35982000.0
785,0.0
798,0.0
2,2, 1, 2, 0, 4, 0.00,60.00,Tuesday
342,15.6
343,30.0
382,15.6
383,30.0
422,15.6
423,90.0
462,15.6
463,30.0
502,15.6
503,30.0
1530,54660691.11848972
1531,0.0
1532,134719649.5103105
1533,0.0
1534,24436973.20095227
1535,0.0
1536,28916266.559349825
1537,0.0
9,71460768.20354495
45,13347692.9325
182,8616830.08824
294,240503963.63772587
319,0.0
629,12814826.221629207
682,230655552.06508006
695,699418.9611757414
709,293169040.28741386
733,293169040.28741386
760,35982000.0
785,0.0
798,0.0
2,2, 1, 2, 0, 5, 0.00,60.00,Tuesday
342,15.6
343,30.0
382,15.6
383,30.0
422,15.6
423,90.0
462,15.6
463,30.0
502,15.6
503,30.0
1530,69578965.08805081
1531,0.0
1532,92672994.73614349
1533,0.0
1534,31041766.074251
1535,0.0
1536,29280548.8317938
1537,0.0
9,69614710.11682126
45,13347692.9325
182,8616830.08824
294,220518903.73816649
319,0.0
629,10986854.771587709
682,212306131.2195759
695,681332.3244935565
709,269452455.51840826
733,269452455.51840826
760,35982000.0
785,0.0
798,0.0
2,2, 1, 2, 0, 6, 0.00,60.00,Tuesday
342,15.6
343,30.0
382,15.6
383,30.0
422,15.6
423,90.0
462,15.6
463,30.0
502,15.6
503,30.0
1530,49225453.563375789
1531,0.0
1532,119223190.71260599
1533,0.0
1534,21962815.301080675
1535,0.0
1536,26250757.76880361
1537,0.0
9,70039204.31715605
45,13347692.9325
182,8616830.08824
294,214923628.56814204
319,0.0
629,11418613.52452723
682,205955050.5296587
695,674067.7718888291
709,261692822.87401475
733,261692822.87401475
760,35982000.0
785,0.0
798,0.0
2,2, 1, 2, 0, 7, 0.00,60.00,Tuesday
342,21.0
343,24.0
382,21.0
383,24.0
422,21.0
423,90.0
462,21.0
463,24.0
502,21.0
503,24.0
1530,155132702.19832436
1531,0.0
1532,539900299.0463793
1533,0.0
1534,77574359.19641274
1535,0.0
1536,75617195.88409803
1537,0.0
9,137822694.51486609
45,13347692.9325
182,8616830.08824
294,555838073.9592984
319,0.0
629,73367148.62066823
682,781403809.5144341
695,6509022.873457877
709,988918115.5532371
733,988918115.5532371
760,35982000.0
785,0.0
798,0.0
2,2, 1, 2, 0, 8, 0.00,60.00,Tuesday
342,21.0
343,24.0
382,21.0
383,24.0
422,21.0
423,90.0
462,21.0
463,24.0
502,21.0
503,24.0
1530,113931921.16339366
1531,0.0
1532,428392959.6459877
1533,0.0
1534,57433711.532431479
1535,0.0
1536,60210704.69149408
1537,0.0
9,160777180.88035698
45,53390771.73
182,17233660.17648
294,375126465.1601364
319,0.0
629,73367148.62066823
682,591431127.7022768
695,4791600.35320877
709,748704550.3987583
733,748704550.3987583
760,11994000.0
785,0.0
798,0.0
2,2, 1, 2, 0, 9, 0.00,60.00,Tuesday
342,21.0
343,24.0
382,21.0
383,24.0
422,21.0
423,90.0
462,21.0
463,24.0
502,21.0
503,24.0
1530,100836111.02147657
1531,0.0
1532,373525237.5617192
1533,0.0
1534,47940069.74964191
1535,0.0
1536,52663851.20675591
1537,0.0
9,240905205.9989127
45,133476929.325
182,30158905.30883999
294,293888762.06024107
319,0.0
629,73367148.62066823
682,505537722.5997618
695,3902222.7444045387
709,640271197.6910372
733,640271197.6910372
760,0.0
785,0.0
798,0.0
2,2, 1, 2, 0,10, 0.00,60.00,Tuesday
342,21.0
343,24.0
382,21.0
383,24.0
422,21.0
423,90.0
462,21.0
463,24.0
502,21.0
503,24.0
1530,88793351.42220253
1531,0.0
1532,302356536.6131668
1533,0.0
1534,37505526.40433115
1535,0.0
1536,43528105.822762589
1537,0.0
9,355331645.07041409
45,240258472.78500004
182,38775735.39708
294,198151736.32984755
319,0.0
629,73367148.62066823
682,401784038.84588769
695,2930288.2676658777
709,509126977.1027001
733,509126977.1027001
760,0.0
785,0.0
798,0.0
2,2, 1, 2, 0,11, 0.00,60.00,Tuesday
342,21.0
343,24.0
382,21.0
383,24.0
422,21.0
423,90.0
462,21.0
463,24.0
502,21.0
503,24.0
1530,81149725.19622056
1531,0.0
1532,270349627.6512777
1533,0.0
1534,32724017.684555234
1535,0.0
1536,38790227.3375731
1537,0.0
9,354814567.15262868
45,240258472.78500004
182,38775735.39708
294,160422454.50311543
319,0.0
629,73367148.62066823
682,352097038.5352696
695,2413210.3498804785
709,446393723.6248686
733,446393723.6248686
760,0.0
785,0.0
798,0.0
2,2, 1, 2, 0,12, 0.00,60.00,Tuesday
342,21.0
343,24.0
382,21.0
383,24.0
422,21.0
423,90.0
462,21.0
463,24.0
502,21.0
503,24.0
1530,76001879.19825796
1531,0.0
1532,241678565.29871959
1533,0.0
1534,28667090.941467674
1535,0.0
1536,34801797.327248658
1537,0.0
9,354406579.938481
45,240258472.78500004
182,38775735.39708
294,124270377.33428726
319,0.0
629,73367148.62066823
682,309824786.2171902
695,2005223.1357328038
709,392979452.87474498
733,392979452.87474498
760,0.0
785,0.0
798,0.0
2,2, 1, 2, 0,13, 0.00,60.00,Tuesday
342,21.0
343,24.0
382,21.0
383,24.0
422,21.0
423,90.0
462,21.0
463,24.0
502,21.0
503,24.0
1530,73560140.1409388
1531,0.0
1532,234541504.8107409
1533,0.0
1534,27145370.592165568
1535,0.0
1536,33245447.57307075
1537,0.0
9,354196079.47211208
45,240258472.78500004
182,38775735.39708
294,111345778.32632047
319,0.0
629,73367148.62066823
682,296957416.1020446
695,1794722.6693638936
709,376851353.00783517
733,376851353.00783517
760,0.0
785,0.0
798,0.0
2,2, 1, 2, 0,14, 0.00,60.00,Tuesday
342,21.0
343,24.0
382,21.0
383,24.0
422,21.0
423,90.0
462,21.0
463,24.0
502,21.0
503,24.0
1530,74852261.65356568
1531,0.0
1532,244653602.25577853
1533,0.0
1534,28422598.56756837
1535,0.0
1536,34422760.58731309
1537,0.0
9,354220837.5029941
45,240258472.78500004
182,38775735.39708
294,111686428.67792309
319,0.0
629,73367148.62066823
682,310840934.0802364
695,1819480.7002459509
709,394540322.78035899
733,394540322.78035899
760,0.0
785,0.0
798,0.0
2,2, 1, 2, 0,15, 0.00,60.00,Tuesday
342,21.0
343,24.0
382,21.0
383,24.0
422,21.0
423,90.0
462,21.0
463,24.0
502,21.0
503,24.0
1530,76586371.08922497
1531,0.0
1532,256012097.44219018
1533,0.0
1534,30267678.695125127
1535,0.0
1536,36205998.42195806
1537,0.0
9,354349369.9924647
45,240258472.78500004
182,38775735.39708
294,114205333.59083456
319,0.0
629,73367148.62066823
682,327690389.15397527
695,1948013.1897165674
709,415861110.7742221
733,415861110.7742221
760,0.0
785,0.0
798,0.0
2,2, 1, 2, 0,16, 0.00,60.00,Tuesday
342,21.0
343,24.0
382,21.0
383,24.0
422,21.0
423,90.0
462,21.0
463,24.0
502,21.0
503,24.0
1530,73060708.60103318
1531,0.0
1532,237864233.44432915
1533,0.0
1534,28776678.392936395
1535,0.0
1536,34709085.48811351
1537,0.0
9,354315499.91040739
45,240258472.78500004
182,38775735.39708
294,95538955.37971676
319,0.0
629,73367148.62066823
682,302995079.3498335
695,1914143.1076592296
709,384339646.81116619
733,384339646.81116619
760,0.0
785,0.0
798,0.0
2,2, 1, 2, 0,17, 0.00,60.00,Tuesday
342,21.0
343,24.0
382,21.0
383,24.0
422,21.0
423,90.0
462,21.0
463,24.0
502,21.0
503,24.0
1530,70268529.7855327
1531,0.0
1532,230866946.42640827
1533,0.0
1534,28438552.10639516
1535,0.0
1536,34399973.35641646
1537,0.0
9,378377010.4594711
45,240258472.78500004
182,38775735.39708
294,91847665.04053381
319,0.0
629,73367148.62066823
682,292631885.6472359
695,1987653.656722919
709,370980001.5660312
733,370980001.5660312
760,23988000.0
785,0.0
798,0.0
2,2, 1, 2, 0,18, 0.00,60.00,Tuesday
342,21.0
343,24.0
382,21.0
383,24.0
422,21.0
423,90.0
462,21.0
463,24.0
502,21.0
503,24.0
1530,72277199.50561308
1531,0.0
1532,249767548.9764803
1533,0.0
1534,30807249.510996857
1535,0.0
1536,36817003.22907416
1537,0.0
9,390571639.9933538
45,240258472.78500004
182,38775735.39708
294,108320058.2938937
319,0.0
629,73367148.62066823
682,318527514.72853216
695,2188283.190605621
709,403768919.9833158
733,403768919.9833158
760,35982000.0
785,0.0
798,0.0
2,2, 1, 2, 0,19, 0.00,60.00,Tuesday
342,21.0
343,24.0
382,21.0
383,24.0
422,21.0
423,90.0
462,21.0
463,24.0
502,21.0
503,24.0
1530,73157915.95086032
1531,0.0
1532,260595502.41650469
1533,0.0
1534,32295968.73644715
1535,0.0
1536,37860864.36813546
1537,0.0
9,306276133.4733327
45,160172315.18999998
182,34467320.35296
294,125345022.46636464
319,0.0
629,73367148.62066823
682,332867831.0974126
695,2287349.3097045978
709,421945760.6764809
733,421945760.6764809
760,35982000.0
785,0.0
798,0.0
2,2, 1, 2, 0,20, 0.00,60.00,Tuesday
342,21.0
343,24.0
382,21.0
383,24.0
422,21.0
423,90.0
462,21.0
463,24.0
502,21.0
503,24.0
1530,71530672.49464077
1531,0.0
1532,263113612.78255183
1533,0.0
1534,32352315.3662917
1535,0.0
1536,37960305.6811136
1537,0.0
9,306345926.96045997
45,160172315.18999998
182,34467320.35296
294,137092706.54179836
319,0.0
629,73367148.62066823
682,333984279.43718919
695,2357142.7968317836
709,423282632.6688895
733,423282632.6688895
760,35982000.0
785,0.0
798,0.0
2,2, 1, 2, 0,21, 0.00,60.00,Tuesday
342,21.0
343,24.0
382,21.0
383,24.0
422,21.0
423,90.0
462,21.0
463,24.0
502,21.0
503,24.0
1530,71016977.03785527
1531,0.0
1532,261564897.42629705
1533,0.0
1534,32644198.840660499
1535,0.0
1536,37759350.40594033
1537,0.0
9,275369990.6174959
45,133476929.325
182,30158905.30883999
294,142595802.02749966
319,0.0
629,73367148.62066823
682,332040661.3895069
695,2385007.362987754
709,420752176.49091759
733,420752176.49091759
760,35982000.0
785,0.0
798,0.0
2,2, 1, 2, 0,22, 0.00,60.00,Tuesday
342,15.6
343,30.0
382,15.6
383,30.0
422,15.6
423,90.0
462,15.6
463,30.0
502,15.6
503,30.0
1530,0.0
1531,0.0
1532,0.0
1533,0.0
1534,0.0
1535,0.0
1536,0.0
1537,0.0
9,106606431.90647999
45,53390771.73
182,17233660.17648
294,0.0
319,0.0
629,0.0
682,0.0
695,0.0
709,0.0
733,0.0
760,35982000.0
785,0.0
798,0.0
2,2, 1, 2, 0,23, 0.00,60.00,Tuesday
342,15.6
343,30.0
382,15.6
383,30.0
422,15.6
423,90.0
462,15.6
463,30.0
502,15.6
503,30.0
1530,24400863.337047075
1531,0.0
1532,0.0
1533,0.0
1534,6143780.629841242
1535,0.0
1536,11829026.368363549
1537,0.0
9,59578646.737399879
45,13347692.9325
182,8616830.08824
294,42063638.97808744
319,0.0
629,1632123.7166598736
682,40741546.61859223
695,0.0
709,51678256.5532874
733,51678256.5532874
760,35982000.0
785,0.0
798,0.0
2,2, 1, 2, 0,24, 0.00,60.00,Tuesday
342,15.6
343,30.0
382,15.6
383,30.0
422,15.6
423,90.0
462,15.6
463,30.0
502,15.6
503,30.0
1530,29141923.073584349
1531,0.0
1532,0.0
1533,0.0
1534,16273451.152594665
1535,0.0
1536,13886286.965954356
1537,0.0
9,60219529.04513545
45,13347692.9325
182,8616830.08824
294,58874292.50226645
319,0.0
629,2273006.0243954656
682,57028655.16773855
695,0.0
709,72183123.4905864
733,72183123.4905864
760,35982000.0
785,0.0
798,0.0
2,3, 1, 3, 0, 1, 0.00,60.00,Wednesday
342,15.6
343,30.0
382,15.6
383,30.0
422,15.6
423,90.0
462,15.6
463,30.0
502,15.6
503,30.0
1530,44044784.81086626
1531,0.0
1532,29227021.30101015
1533,0.0
1534,14274505.548768027
1535,0.0
1536,21181190.34485944
1537,0.0
9,62870266.103256437
45,13347692.9325
182,8616830.08824
294,107570975.90562257
319,0.0
629,4923743.082516433
682,103803758.92298858
695,0.0
709,131987707.11028826
733,131987707.11028826
760,35982000.0
785,0.0
798,0.0
2,3, 1, 3, 0, 2, 0.00,60.00,Wednesday
342,15.6
343,30.0
382,15.6
383,30.0
422,15.6
423,90.0
462,15.6
463,30.0
502,15.6
503,30.0
1530,35085433.89497359
1531,0.0
1532,47828781.2098553
1533,0.0
1534,20882385.781066576
1535,0.0
1536,17039756.02985776
1537,0.0
9,63876899.730916518
45,13347692.9325
182,8616830.08824
294,120082110.1915326
319,0.0
629,5900129.726723229
682,114990147.4988899
695,30246.98345329429
709,146214320.32063604
733,146214320.32063604
760,35982000.0
785,0.0
798,0.0
2,3, 1, 3, 0, 3, 0.00,60.00,Wednesday
342,15.6
343,30.0
382,15.6
383,30.0
422,15.6
423,90.0
462,15.6
463,30.0
502,15.6
503,30.0
1530,48247299.72442271
1531,0.0
1532,49298375.85353127
1533,0.0
1534,16125781.158567582
1535,0.0
1536,23560567.222093319
1537,0.0
9,64694992.72714077
45,13347692.9325
182,8616830.08824
294,136086437.78268294
319,0.0
629,6581584.521184421
682,130854703.55907649
695,166885.18521635718
709,166323815.17011334
733,166323815.17011334
760,35982000.0
785,0.0
798,0.0
2,3, 1, 3, 0, 4, 0.00,60.00,Wednesday
342,15.6
343,30.0
382,15.6
383,30.0
422,15.6
423,90.0
462,15.6
463,30.0
502,15.6
503,30.0
1530,37245603.16178534
1531,0.0
1532,61831673.30258489
1533,0.0
1534,22719951.079173428
1535,0.0
1536,18205138.29157797
1537,0.0
9,65244718.68431595
45,13347692.9325
182,8616830.08824
294,139357455.71939237
319,0.0
629,7011372.916697077
682,133315194.60173333
695,286822.74687887317
709,169286323.99739788
733,169286323.99739788
760,35982000.0
785,0.0
798,0.0
2,3, 1, 3, 0, 5, 0.00,60.00,Wednesday
342,15.6
343,30.0
382,15.6
383,30.0
422,15.6
423,90.0
462,15.6
463,30.0
502,15.6
503,30.0
1530,55821609.64503362
1531,0.0
1532,71385207.00274591
1533,0.0
1534,18795889.472303504
1535,0.0
1536,27146357.719399528
1537,0.0
9,66889460.25693195
45,13347692.9325
182,8616830.08824
294,171700256.3266353
319,0.0
629,8524416.872777189
682,165080546.26655019
695,418520.36341477817
709,209687417.1219427
733,209687417.1219427
760,35982000.0
785,0.0
798,0.0
2,3, 1, 3, 0, 6, 0.00,60.00,Wednesday
342,15.6
343,30.0
382,15.6
383,30.0
422,15.6
423,90.0
462,15.6
463,30.0
502,15.6
503,30.0
1530,46145344.673529829
1531,0.0
1532,93717461.85073504
1533,0.0
1534,28529156.580745695
1535,0.0
1536,22478362.29057656
1537,0.0
9,68287117.91020414
45,13347692.9325
182,8616830.08824
294,189883271.76971556
319,0.0
629,9787662.499000332
682,181672974.22348074
695,552932.3904638256
709,230631129.3157652
733,230631129.3157652
760,35982000.0
785,0.0
798,0.0
2,3, 1, 3, 0, 7, 0.00,60.00,Wednesday
342,21.0
343,24.0
382,21.0
383,24.0
422,21.0
423,90.0
462,21.0
463,24.0
502,21.0
503,24.0
1530,154654122.79233099
1531,0.0
1532,548123777.6579821
1533,0.0
1534,75554468.0576219
1535,0.0
1536,81628671.12791303
1537,0.0
9,137900065.1326244
45,13347692.9325
182,8616830.08824
294,540387232.7173833
319,0.0
629,73367148.62066823
682,793217663.4428215
695,6586393.491216163
709,1003836953.6404209
733,1003836953.6404209
760,35982000.0
785,0.0
798,0.0
2,3, 1, 3, 0, 8, 0.00,60.00,Wednesday
342,21.0
343,24.0
382,21.0
383,24.0
422,21.0
423,90.0
462,21.0
463,24.0
502,21.0
503,24.0
1530,116870517.17649387
1531,0.0
1532,450937202.4785258
1533,0.0
1534,61055988.07713586
1535,0.0
1536,64205160.39328641
1537,0.0
9,160984100.53819103
45,53390771.73
182,17233660.17648
294,372276691.12476059
319,0.0
629,73367148.62066823
682,624737618.4522497
695,4998520.011042802
709,790895771.9192408
733,790895771.9192408
760,11994000.0
785,0.0
798,0.0
2,3, 1, 3, 0, 9, 0.00,60.00,Wednesday
342,21.0
343,24.0
382,21.0
383,24.0
422,21.0
423,90.0
462,21.0
463,24.0
502,21.0
503,24.0
1530,108233147.8416134
1531,0.0
1532,415815455.49967309
1533,0.0
1534,53697569.96292782
1535,0.0
1536,58634513.39410103
1537,0.0