Program Version,EnergyPlus, Version 9.2.0-921312fa1d, YMD=2020.12.22 17:58
1,5,Environment Title[],Latitude[deg],Longitude[deg],Time Zone[],Elevation[m]
2,8,Day of Simulation[],Month[],Day of Month[],DST Indicator[1=yes 0=no],Hour[],StartMinute[],EndMinute[],DayType
3,5,Cumulative Day of Simulation[],Month[],Day of Month[],DST Indicator[1=yes 0=no],DayType  ! When Daily Meters Requested
4,2,Cumulative Days of Simulation[],Month[]  ! When Monthly Meters Requested
5,1,Cumulative Days of Simulation[] ! When Run Period Meters Requested
6,1,Calendar Year of Simulation[] ! When Annual Meters Requested
9,1,Electricity:Facility [J] !Hourly
695,1,Heating:Electricity [J] !Hourly
798,1,Cooling:Electricity [J] !Hourly
45,1,InteriorLights:Electricity [J] !Hourly
760,1,ExteriorLights:Electricity [J] !Hourly
182,1,InteriorEquipment:Electricity [J] !Hourly
629,1,Fans:Electricity [J] !Hourly
709,1,Gas:Facility [J] !Hourly
733,1,Heating:Gas [J] !Hourly
294,1,Heating:EnergyTransfer [J] !Hourly
319,1,Cooling:EnergyTransfer [J] !Hourly
682,1,HeatingCoils:EnergyTransfer [J] !Hourly
785,1,CoolingCoils:EnergyTransfer [J] !Hourly
End of Data Dictionary
1,RUNPERIOD 1,  41.98, -87.92,  -6.00, 201.00
2,1, 1, 1, 0, 1, 0.00,60.00,Holiday
9,73144896.36155944
45,13347692.9325
182,6462622.566179999
294,322634404.2012017
319,0.0
629,16614301.484574907
682,310408699.4457279
695,738279.3783045386
709,394568835.5207232
733,394568835.5207232
760,35982000.0
785,0.0
798,0.0
2,1, 1, 1, 0, 2, 0.00,60.00,Holiday
9,74405522.5034209
45,13347692.9325
182,6462622.566179999
294,335662663.96068289
319,0.0
629,17504592.159480726
682,321808642.1170023
695,1108614.845260181
709,408721855.0223281
733,408721855.0223281
760,35982000.0
785,0.0
798,0.0
2,1, 1, 1, 0, 3, 0.00,60.00,Holiday
9,80561092.57816527
45,13347692.9325
182,6462622.566179999
294,450979509.4432788
319,0.0
629,23578130.234228229
682,434717393.7576973
695,1190646.8452570379
709,552514046.7988722
733,552514046.7988722
760,35982000.0
785,0.0
798,0.0
2,1, 1, 1, 0, 4, 0.00,60.00,Holiday
9,74704599.15909854
45,13347692.9325
182,6462622.566179999
294,338077383.0936038
319,0.0
629,17645852.997572993
682,324105229.2112108
695,1266430.6628455467
709,411443647.42436167
733,411443647.42436167
760,35982000.0
785,0.0
798,0.0
2,1, 1, 1, 0, 5, 0.00,60.00,Holiday
9,81034850.64226529
45,13347692.9325
182,6462622.566179999
294,456906931.7780252
319,0.0
629,23905834.068680198
682,440384918.7248651
695,1336701.0749051034
709,559558881.2334367
733,559558881.2334367
760,35982000.0
785,0.0
798,0.0
2,1, 1, 1, 0, 6, 0.00,60.00,Holiday
9,75006471.13498983
45,13347692.9325
182,6462622.566179999
294,341051065.75199469
319,0.0
629,17817274.35073687
682,326911443.21654978
695,1396881.285572967
709,414871668.2997857
733,414871668.2997857
760,35982000.0
785,0.0
798,0.0
2,1, 1, 1, 0, 7, 0.00,60.00,Holiday
9,81600999.37720543
45,13347692.9325
182,6462622.566179999
294,464811425.57948938
319,0.0
629,24340573.660505333
682,447914333.3165332
695,1468110.2180201088
709,569021645.192259
733,569021645.192259
760,35982000.0
785,0.0
798,0.0
2,1, 1, 1, 0, 8, 0.00,60.00,Holiday
9,51195629.95140862
45,13347692.9325
182,6462622.566179999
294,344420817.39286157
319,0.0
629,18019035.369962988
682,330144636.8174971
695,1372279.0827656312
709,419056156.076046
733,419056156.076046
760,11994000.0
785,0.0
798,0.0
2,1, 1, 1, 0, 9, 0.00,60.00,Holiday
9,119744241.64694372
45,26695385.865
182,12925245.132359999
294,685553439.2768538
319,0.0
629,73367148.62066823
682,1032384409.3401523
695,6756462.028915498
709,1309155476.820805
733,1309155476.820805
760,0.0
785,0.0
798,0.0
2,1, 1, 1, 0,10, 0.00,60.00,Holiday
9,116797121.68578622
45,26695385.865
182,12925245.132359999
294,461752924.5480047
319,0.0
629,73367148.62066823
682,771289666.9769943
695,3809342.067758007
709,979994798.1338108
733,979994798.1338108
760,0.0
785,0.0
798,0.0
2,1, 1, 1, 0,11, 0.00,60.00,Holiday
9,208236930.8427016
45,106781543.46
182,25850490.264719998
294,358892819.5332114
319,0.0
629,73367148.62066823
682,643010723.1314652
695,2237748.497313402
709,818427620.5359023
733,818427620.5359023
760,0.0
785,0.0
798,0.0
2,1, 1, 1, 0,12, 0.00,60.00,Holiday
9,207675377.1753547
45,106781543.46
182,25850490.264719998
294,311023346.03370067
319,0.0
629,73367148.62066823
682,572554719.6863974
695,1676194.8299664998
709,729217990.0624697
733,729217990.0624697
760,0.0
785,0.0
798,0.0
2,1, 1, 1, 0,13, 0.00,60.00,Holiday
9,270001131.6649711
45,160172315.18999998
182,34467320.35296
294,249721119.4773057
319,0.0
629,73367148.62066823
682,493287168.30659249
695,1994347.5013429386
709,627461988.9340074
733,627461988.9340074
760,0.0
785,0.0
798,0.0
2,1, 1, 1, 0,14, 0.00,60.00,Holiday
9,270270201.38342627
45,160172315.18999998
182,34467320.35296
294,222478500.3304807
319,0.0
629,73367148.62066822
682,451380311.0762783
695,2263417.219798041
709,573509290.1618228
733,573509290.1618228
760,0.0
785,0.0
798,0.0
2,1, 1, 1, 0,15, 0.00,60.00,Holiday
9,270318556.67397007
45,160172315.18999998
182,34467320.35296
294,205575999.50047816
319,0.0
629,73367148.62066823
682,428394373.6132854
695,2311772.510341838
709,544058587.8776999
733,544058587.8776999
760,0.0
785,0.0
798,0.0
2,1, 1, 1, 0,16, 0.00,60.00,Holiday
9,270481055.6286526
45,160172315.18999998
182,34467320.35296
294,197236884.04559715
319,0.0
629,73367148.62066823
682,420136926.1967127
695,2474271.4650243998
709,533246641.5477579
733,533246641.5477579
760,0.0
785,0.0
798,0.0
2,1, 1, 1, 0,17, 0.00,60.00,Holiday
9,294635634.20779976
45,160172315.18999998
182,34467320.35296
294,191178524.06567715
319,0.0
629,73367148.62066823
682,414114396.6860678
695,2640850.044171581
709,525292511.3655888
733,525292511.3655888
760,23988000.0
785,0.0
798,0.0
2,1, 1, 1, 0,18, 0.00,60.00,Holiday
9,243366923.416996
45,106781543.46
182,25850490.264719998
294,422723011.5555409
319,0.0
629,73367148.62066823
682,650324047.8553652
695,1385741.0716077844
709,828219117.0079416
733,828219117.0079416
760,35982000.0
785,0.0
798,0.0
2,1, 1, 1, 0,19, 0.00,60.00,Holiday
9,181673648.3449181
45,53390771.73
182,17233660.17648
294,463583944.95308879
319,0.0
629,73367148.62066823
682,698458271.6367484
695,1700067.8177698693
709,889217133.611211
733,889217133.611211
760,35982000.0
785,0.0
798,0.0
2,1, 1, 1, 0,20, 0.00,60.00,Holiday
9,57117564.45835808
45,13347692.9325
182,6462622.566179999
294,34315368.21836089
319,0.0
629,1325248.959678086
682,33119808.930579764
695,0.0
709,41960812.04090593
733,41960812.04090593
760,35982000.0
785,0.0
798,0.0
2,1, 1, 1, 0,21, 0.00,60.00,Holiday
9,61088784.05621549
45,13347692.9325
182,6462622.566179999
294,115537549.15986307
319,0.0
629,5296468.557535496
682,111204868.83523327
695,0.0
709,141383589.37940587
733,141383589.37940587
760,35982000.0
785,0.0
798,0.0
2,1, 1, 1, 0,22, 0.00,60.00,Holiday
9,63274310.37396113
45,13347692.9325
182,6462622.566179999
294,146171171.0241812
319,0.0
629,7481994.875281142
682,139892406.89541764
695,0.0
709,178201541.7488505
733,178201541.7488505
760,35982000.0
785,0.0
798,0.0
2,1, 1, 1, 0,23, 0.00,60.00,Holiday
9,64003465.290082018
45,13347692.9325
182,6462622.566179999
294,167393717.2471026
319,0.0
629,8137711.359976469
682,160908301.85320015
695,73438.43142555359
709,204685156.2102812
733,204685156.2102812
760,35982000.0
785,0.0
798,0.0
2,1, 1, 1, 0,24, 0.00,60.00,Holiday
9,65753950.621997538
45,13347692.9325
182,6462622.566179999
294,184739990.70774985
319,0.0
629,9682223.940124914
682,176897494.35971786
695,279411.1831926238
709,225078014.65618608
733,225078014.65618608
760,35982000.0
785,0.0
798,0.0
2,2, 1, 2, 0, 1, 0.00,60.00,Tuesday
9,68918434.43513567
45,13347692.9325
182,8616830.08824
294,212289018.30917115
319,0.0
629,10499029.707876809
682,204194292.22470007
695,472881.7065188637
709,259344471.55908267
733,259344471.55908267
760,35982000.0
785,0.0
798,0.0
2,2, 1, 2, 0, 2, 0.00,60.00,Tuesday
9,70876300.26190152
45,13347692.9325
182,8616830.08824
294,232372087.03471793
319,0.0
629,12343727.789349864
682,222821001.11822499
695,586049.4518116542
709,283305807.2193125
733,283305807.2193125
760,35982000.0
785,0.0
798,0.0
2,2, 1, 2, 0, 3, 0.00,60.00,Tuesday
9,70054954.96004884
45,13347692.9325
182,8616830.08824
294,230172792.68194676
319,0.0
629,11457121.824266255
682,221562777.30803017
695,651310.115042586
709,281264545.7342606
733,281264545.7342606
760,35982000.0
785,0.0
798,0.0
2,2, 1, 2, 0, 4, 0.00,60.00,Tuesday
9,71460768.20354495
45,13347692.9325
182,8616830.08824
294,240503963.63772587
319,0.0
629,12814826.221629207
682,230655552.06508006
695,699418.9611757414
709,293169040.28741386
733,293169040.28741386
760,35982000.0
785,0.0
798,0.0
2,2, 1, 2, 0, 5, 0.00,60.00,Tuesday
9,69614710.11682126
45,13347692.9325
182,8616830.08824
294,220518903.73816649
319,0.0
629,10986854.771587709
682,212306131.2195759
695,681332.3244935565
709,269452455.51840826
733,269452455.51840826
760,35982000.0
785,0.0
798,0.0
2,2, 1, 2, 0, 6, 0.00,60.00,Tuesday
9,70039204.31715605
45,13347692.9325
182,8616830.08824
294,214923628.56814204
319,0.0
629,11418613.52452723
682,205955050.5296587
695,674067.7718888291
709,261692822.87401475
733,261692822.87401475
760,35982000.0
785,0.0
798,0.0
2,2, 1, 2, 0, 7, 0.00,60.00,Tuesday
9,137822694.51486609
45,13347692.9325
182,8616830.08824
294,555838073.9592984
319,0.0
629,73367148.62066823
682,781403809.5144341
695,6509022.873457877
709,988918115.5532371
733,988918115.5532371
760,35982000.0
785,0.0
798,0.0
2,2, 1, 2, 0, 8, 0.00,60.00,Tuesday
9,160777180.88035698
45,53390771.73
182,17233660.17648
294,375126465.1601364
319,0.0
629,73367148.62066823
682,591431127.7022768
695,4791600.35320877
709,748704550.3987583
733,748704550.3987583
760,11994000.0
785,0.0
798,0.0
2,2, 1, 2, 0, 9, 0.00,60.00,Tuesday
9,240905205.9989127
45,133476929.325
182,30158905.30883999
294,293888762.06024107
319,0.0
629,73367148.62066823
682,505537722.5997618
695,3902222.7444045387
709,640271197.6910372
733,640271197.6910372
760,0.0
785,0.0
798,0.0
2,2, 1, 2, 0,10, 0.00,60.00,Tuesday
9,355331645.07041409
45,240258472.78500004
182,38775735.39708
294,198151736.32984755
319,0.0
629,73367148.62066823
682,401784038.84588769
695,2930288.2676658777
709,509126977.1027001
733,509126977.1027001
760,0.0
785,0.0
798,0.0
2,2, 1, 2, 0,11, 0.00,60.00,Tuesday
9,354814567.15262868
45,240258472.78500004
182,38775735.39708
294,160422454.50311543
319,0.0
629,73367148.62066823
682,352097038.5352696
695,2413210.3498804785
709,446393723.6248686
733,446393723.6248686
760,0.0
785,0.0
798,0.0
2,2, 1, 2, 0,12, 0.00,60.00,Tuesday
9,354406579.938481
45,240258472.78500004
182,38775735.39708
294,124270377.33428726
319,0.0
629,73367148.62066823
682,309824786.2171902
695,2005223.1357328038
709,392979452.87474498
733,392979452.87474498
760,0.0
785,0.0
798,0.0
2,2, 1, 2, 0,13, 0.00,60.00,Tuesday
9,354196079.47211208
45,240258472.78500004
182,38775735.39708
294,111345778.32632047
319,0.0
629,73367148.62066823
682,296957416.1020446
695,1794722.6693638936
709,376851353.00783517
733,376851353.00783517
760,0.0
785,0.0
798,0.0
2,2, 1, 2, 0,14, 0.00,60.00,Tuesday
9,354220837.5029941
45,240258472.78500004
182,38775735.39708
294,111686428.67792309
319,0.0
629,73367148.62066823
682,310840934.0802364
695,1819480.7002459509
709,394540322.78035899
733,394540322.78035899
760,0.0
785,0.0
798,0.0
2,2, 1, 2, 0,15, 0.00,60.00,Tuesday
9,354349369.9924647
45,240258472.78500004
182,38775735.39708
294,114205333.59083456
319,0.0
629,73367148.62066823
682,327690389.15397527
695,1948013.1897165674
709,415861110.7742221
733,415861110.7742221
760,0.0
785,0.0
798,0.0
2,2, 1, 2, 0,16, 0.00,60.00,Tuesday
9,354315499.91040739
45,240258472.78500004
182,38775735.39708
294,95538955.37971676
319,0.0
629,73367148.62066823
682,302995079.3498335
695,1914143.1076592296
709,384339646.81116619
733,384339646.81116619
760,0.0
785,0.0
798,0.0
2,2, 1, 2, 0,17, 0.00,60.00,Tuesday
9,378377010.4594711
45,240258472.78500004
182,38775735.39708
294,91847665.04053381
319,0.0
629,73367148.62066823
682,292631885.6472359
695,1987653.656722919
709,370980001.5660312
733,370980001.5660312
760,23988000.0
785,0.0
798,0.0
2,2, 1, 2, 0,18, 0.00,60.00,Tuesday
9,390571639.9933538
45,240258472.78500004
182,38775735.39708
294,108320058.2938937
319,0.0
629,73367148.62066823
682,318527514.72853216
695,2188283.190605621
709,403768919.9833158
733,403768919.9833158
760,35982000.0
785,0.0
798,0.0
2,2, 1, 2, 0,19, 0.00,60.00,Tuesday
9,306276133.4733327
45,160172315.18999998
182,34467320.35296
294,125345022.46636464
319,0.0
629,73367148.62066823
682,332867831.0974126
695,2287349.3097045978
709,421945760.6764809
733,421945760.6764809
760,35982000.0
785,0.0
798,0.0
2,2, 1, 2, 0,20, 0.00,60.00,Tuesday
9,306345926.96045997
45,160172315.18999998
182,34467320.35296
294,137092706.54179836
319,0.0
629,73367148.62066823
682,333984279.43718919
695,2357142.7968317836
709,423282632.6688895
733,423282632.6688895
760,35982000.0
785,0.0
798,0.0
2,2, 1, 2, 0,21, 0.00,60.00,Tuesday
9,275369990.6174959
45,133476929.325
182,30158905.30883999
294,142595802.02749966
319,0.0
629,73367148.62066823
682,332040661.3895069
695,2385007.362987754
709,420752176.49091759
733,420752176.49091759
760,35982000.0
785,0.0
798,0.0
2,2, 1, 2, 0,22, 0.00,60.00,Tuesday
9,106606431.90647999
45,53390771.73
182,17233660.17648
294,0.0
319,0.0
629,0.0
682,0.0
695,0.0
709,0.0
733,0.0
760,35982000.0
785,0.0
798,0.0
2,2, 1, 2, 0,23, 0.00,60.00,Tuesday
9,59578646.737399879
45,13347692.9325
182,8616830.08824
294,42063638.97808744
319,0.0
629,1632123.7166598736
682,40741546.61859223
695,0.0
709,51678256.5532874
733,51678256.5532874
760,35982000.0
785,0.0
798,0.0
2,2, 1, 2, 0,24, 0.00,60.00,Tuesday
9,60219529.04513545
45,13347692.9325
182,8616830.08824
294,58874292.50226645
319,0.0
629,2273006.0243954656
682,57028655.16773855
695,0.0
709,72183123.4905864
733,72183123.4905864
760,35982000.0
785,0.0
798,0.0
2,3, 1, 3, 0, 1, 0.00,60.00,Wednesday
9,62870266.103256437
45,13347692.9325
182,8616830.08824
294,107570975.90562257
319,0.0
629,4923743.082516433
682,103803758.92298858
695,0.0
709,131987707.11028826
733,131987707.11028826
760,35982000.0
785,0.0
798,0.0
2,3, 1, 3, 0, 2, 0.00,60.00,Wednesday
9,63876899.730916518
45,13347692.9325
182,8616830.08824
294,120082110.1915326
319,0.0
629,5900129.726723229
682,114990147.4988899
695,30246.98345329429
709,146214320.32063604
733,146214320.32063604
760,35982000.0
785,0.0
798,0.0
2,3, 1, 3, 0, 3, 0.00,60.00,Wednesday
9,64694992.72714077
45,13347692.9325
182,8616830.08824
294,136086437.78268294
319,0.0
629,6581584.521184421
682,130854703.55907649
695,166885.18521635718
709,166323815.17011334
733,166323815.17011334
760,35982000.0
785,0.0
798,0.0
2,3, 1, 3, 0, 4, 0.00,60.00,Wednesday
9,65244718.68431595
45,13347692.9325
182,8616830.08824
294,139357455.71939237
319,0.0
629,7011372.916697077
682,133315194.60173333
695,286822.74687887317
709,169286323.99739788
733,169286323.99739788
760,35982000.0
785,0.0
798,0.0
2,3, 1, 3, 0, 5, 0.00,60.00,Wednesday
9,66889460.25693195
45,13347692.9325
182,8616830.08824
294,171700256.3266353
319,0.0
629,8524416.872777189
682,165080546.26655019
695,418520.36341477817
709,209687417.1219427
733,209687417.1219427
760,35982000.0
785,0.0
798,0.0
2,3, 1, 3, 0, 6, 0.00,60.00,Wednesday
9,68287117.91020414
45,13347692.9325
182,8616830.08824
294,189883271.76971556
319,0.0
629,9787662.499000332
682,181672974.22348074
695,552932.3904638256
709,230631129.3157652
733,230631129.3157652
760,35982000.0
785,0.0
798,0.0
2,3, 1, 3, 0, 7, 0.00,60.00,Wednesday
9,137900065.1326244
45,13347692.9325
182,8616830.08824
294,540387232.7173833
319,0.0
629,73367148.62066823
682,793217663.4428215
695,6586393.491216163
709,1003836953.6404209
733,1003836953.6404209
760,35982000.0
785,0.0
798,0.0
2,3, 1, 3, 0, 8, 0.00,60.00,Wednesday
9,160984100.53819103
45,53390771.73
182,17233660.17648
294,372276691.12476059
319,0.0
629,73367148.62066823
682,624737618.4522497
695,4998520.011042802
709,790895771.9192408
733,790895771.9192408
760,11994000.0
785,0.0
798,0.0
2,3, 1, 3, 0, 9, 0.00,60.00,Wednesday
9,241185749.11046944
45,133476929.325
182,30158905.30883999
294,306219298.07334139
319,0.0
629,73367148.62066823
682,567233682.8700395
695,4182765.8559612475
709,718633009.3560437
733,718633009.3560437
760,0.0
785,0.0
798,0.0
2,3, 1, 3, 0,10, 0.00,60.00,Wednesday
9,355745616.69151368
45,240258472.78500004
182,38775735.39708
294,226812414.2549397
319,0.0
629,73367148.62066823
682,493933573.37873736
695,3344259.8887654526
709,626205593.0439961
733,626205593.0439961
760,0.0
785,0.0
798,0.0
2,3, 1, 3, 0,11, 0.00,60.00,Wednesday
9,355283162.2510921
45,240258472.78500004
182,38775735.39708
294,198675439.13773395
319,0.0
629,73367148.62066823
682,461890637.2742245
695,2881805.4483438876
709,585945469.9575186
733,585945469.9575186
760,0.0
785,0.0
798,0.0
2,3, 1, 3, 0,12, 0.00,60.00,Wednesday
9,354926962.371412
45,240258472.78500004
182,38775735.39708
294,165898045.73513789
319,0.0
629,73367148.62066823
682,421680317.69922187
695,2525605.568663807
709,535090226.3594014
733,535090226.3594014
760,0.0
785,0.0
798,0.0
2,3, 1, 3, 0,13, 0.00,60.00,Wednesday
9,354716202.66182747
45,240258472.78500004
182,38775735.39708
294,150695525.07585768
319,0.0
629,73367148.62066823
682,399238192.344592
695,2314845.8590792317
709,506726312.4208622
733,506726312.4208622
760,0.0
785,0.0
798,0.0
2,3, 1, 3, 0,14, 0.00,60.00,Wednesday
9,354595029.70974847
45,240258472.78500004
182,38775735.39708
294,140786079.7077362
319,0.0
629,73367148.62066822
682,386529642.06063738
695,2193672.907000324
709,490661641.1191612
733,490661641.1191612
760,0.0
785,0.0
798,0.0
2,3, 1, 3, 0,15, 0.00,60.00,Wednesday
9,354595032.62989029
45,240258472.78500004
182,38775735.39708
294,134280914.3704293
319,0.0
629,73367148.62066823
682,380025028.92123076
695,2193675.827142094
709,482340802.7758162
733,482340802.7758162
760,0.0
785,0.0
798,0.0
2,3, 1, 3, 0,16, 0.00,60.00,Wednesday
9,354607098.66900679
45,240258472.78500004
182,38775735.39708
294,121536313.00742272
319,0.0
629,73367148.62066823
682,367283197.20317617
695,2205741.866258565
709,466028077.40003457
733,466028077.40003457
760,0.0
785,0.0
798,0.0
2,3, 1, 3, 0,17, 0.00,60.00,Wednesday
9,378768478.45005217
45,240258472.78500004
182,38775735.39708
294,124637664.83048117
319,0.0
629,73367148.62066823
682,370426640.68392476
695,2379121.6473039288
709,469779722.1400795
733,469779722.1400795
760,23988000.0
785,0.0
798,0.0
2,3, 1, 3, 0,18, 0.00,60.00,Wednesday
9,390933033.51991847
45,240258472.78500004
182,38775735.39708
294,135890042.9166271
319,0.0
629,73367148.62066823
682,381663233.8482032
695,2549676.717170276
709,483887228.8235438
733,483887228.8235438
760,35982000.0
785,0.0
798,0.0
2,3, 1, 3, 0,19, 0.00,60.00,Wednesday
9,306701972.5803797
45,160172315.18999998
182,34467320.35296
294,156334659.07789479
319,0.0
629,73367148.62066823
682,402075654.52173909
695,2713188.4167515637
709,509723416.4770006
733,509723416.4770006
760,35982000.0
785,0.0
798,0.0
2,3, 1, 3, 0,20, 0.00,60.00,Wednesday
9,306893283.091065
45,160172315.18999998
182,34467320.35296
294,177006420.40164579
319,0.0
629,73367148.62066823
682,422793881.9214376
695,2904498.9274368535
709,535922472.7829164
733,535922472.7829164
760,35982000.0
785,0.0
798,0.0
2,3, 1, 3, 0,21, 0.00,60.00,Wednesday
9,276003966.3091142
45,133476929.325
182,30158905.30883999
294,188852537.89978744
319,0.0
629,73367148.62066822
682,434719952.516924
695,3018983.054606094
709,550984176.580681
733,550984176.580681
760,35982000.0
785,0.0
798,0.0
2,3, 1, 3, 0,22, 0.00,60.00,Wednesday
9,107642788.51525297
45,53390771.73
182,17233660.17648
294,26750765.377242663
319,0.0
629,1036356.6087729873
682,25885288.51722253
695,0.0
709,32777456.083187105
733,32777456.083187105
760,35982000.0
785,0.0
798,0.0
2,3, 1, 3, 0,23, 0.00,60.00,Wednesday
9,61974983.54350368
45,13347692.9325
182,8616830.08824
294,95364736.79917291
319,0.0
629,4028460.5227636855
682,92361213.17485978
695,0.0
709,117230902.46685343
733,117230902.46685343
760,35982000.0
785,0.0
798,0.0
2,3, 1, 3, 0,24, 0.00,60.00,Wednesday
9,64802463.51669628
45,13347692.9325
182,8616830.08824
294,139027840.13870008
319,0.0
629,6855940.495956281
682,133030170.74656415
695,0.0
709,169246925.24540559
733,169246925.24540559
760,35982000.0
785,0.0
798,0.0
2,4, 1, 4, 0, 1, 0.00,60.00,Thursday
9,66741316.533449027
45,13347692.9325
182,8616830.08824
294,176806240.03450007
319,0.0
629,8646618.36355603
682,170396793.82216878
695,148175.14915300045
709,216676499.93388478
733,216676499.93388478
760,35982000.0
785,0.0
798,0.0
2,4, 1, 4, 0, 2, 0.00,60.00,Thursday
9,67472878.44396486
45,13347692.9325
182,8616830.08824
294,179245676.4649434
319,0.0
629,9163007.538631205
682,171389280.78053177
695,363347.88459366079
709,217758549.39487509
733,217758549.39487509
760,35982000.0
785,0.0
798,0.0
2,4, 1, 4, 0, 3, 0.00,60.00,Thursday
9,68718629.751585
45,13347692.9325
182,8616830.08824
294,206266936.81390978
319,0.0
629,10267974.883685474
682,198896332.15589915
695,504131.8471595437
709,252596228.93690894
733,252596228.93690894
760,35982000.0
785,0.0
798,0.0
2,4, 1, 4, 0, 4, 0.00,60.00,Thursday
9,69258881.20454039
45,13347692.9325
182,8616830.08824
294,206481111.5541912
319,0.0
629,10696644.3361244
682,197405257.03510786
695,615713.8476759846
709,250649509.17430336
733,250649509.17430336
760,35982000.0
785,0.0
798,0.0
2,4, 1, 4, 0, 5, 0.00,60.00,Thursday
9,70422423.64069177
45,13347692.9325
182,8616830.08824
294,233948018.75875784
319,0.0
629,11780168.958345212
682,225783612.3133954
695,695731.6616065594
709,286657840.9875873
733,286657840.9875873
760,35982000.0
785,0.0
798,0.0
2,4, 1, 4, 0, 6, 0.00,60.00,Thursday
9,70445687.39620929
45,13347692.9325
182,8616830.08824
294,225152861.2787541
319,0.0
629,11745258.10260154
682,215319725.03259547
695,753906.2728677533
709,273343281.29960617
733,273343281.29960617
760,35982000.0
785,0.0
798,0.0
2,4, 1, 4, 0, 7, 0.00,60.00,Thursday
9,138080169.205073
45,13347692.9325
182,8616830.08824
294,555366503.192512
319,0.0
629,73367148.62066823
682,810610987.4199814
695,6766497.563664771
709,1025789116.6145177
733,1025789116.6145177
760,35982000.0
785,0.0
798,0.0
2,4, 1, 4, 0, 8, 0.00,60.00,Thursday
9,161030498.62027437
45,53390771.73
182,17233660.17648
294,377388390.52380129
319,0.0
629,73367148.62066823
682,623375103.7796744
695,5044918.093126167
709,789088725.0930281
733,789088725.0930281
760,11994000.0
785,0.0
798,0.0
2,4, 1, 4, 0, 9, 0.00,60.00,Thursday
9,241101511.10359518
45,133476929.325
182,30158905.30883999
294,299412730.2786139
319,0.0
629,73367148.62066823
682,540706002.2667385
695,4098527.8490869787
709,684869095.400627
733,684869095.400627
760,0.0
785,0.0
798,0.0
2,4, 1, 4, 0,10, 0.00,60.00,Thursday
9,355586022.77511349
45,240258472.78500004
182,38775735.39708
294,208261743.68502943
319,0.0
629,73367148.62066823
682,442285217.08343228
695,3184665.9723653437
709,560456943.5985804
733,560456943.5985804
760,0.0
785,0.0
798,0.0
2,4, 1, 4, 0,11, 0.00,60.00,Thursday
9,355105219.52178016
45,240258472.78500004
182,38775735.39708
294,179123350.99825046
319,0.0
629,73367148.62066822
682,410392064.0115639
695,2703862.719031998
709,520412573.3939964
733,520412573.3939964
760,0.0
785,0.0
798,0.0
2,4, 1, 4, 0,12, 0.00,60.00,Thursday
9,354754690.74933746
45,240258472.78500004
182,38775735.39708
294,146715337.9163032
319,0.0
629,73367148.62066823
682,373372082.95656386
695,2353333.9465893066
709,473625875.14748576
733,473625875.14748576
760,0.0
785,0.0
798,0.0
2,4, 1, 4, 0,13, 0.00,60.00,Thursday
9,354527816.27585056
45,240258472.78500004
182,38775735.39708
294,130459122.95123697
319,0.0
629,73367148.62066823
682,349873916.6978821
695,2126459.4731023504
709,443940912.88603666
733,443940912.88603666
760,0.0
785,0.0
798,0.0
2,4, 1, 4, 0,14, 0.00,60.00,Thursday
9,354441118.56477287
45,240258472.78500004
182,38775735.39708
294,120075806.49008683
319,0.0
629,73367148.62066823
682,336690317.0298958
695,2039761.7620247086
709,427217415.52310636
733,427217415.52310636
760,0.0
785,0.0
798,0.0
2,4, 1, 4, 0,15, 0.00,60.00,Thursday
9,354464862.3441349
45,240258472.78500004
182,38775735.39708
294,115831937.90782237
319,0.0
629,73367148.62066823
682,336404187.4082112
695,2063505.5413867315
709,426805019.8571789
733,426805019.8571789
760,0.0
785,0.0
798,0.0
2,4, 1, 4, 0,16, 0.00,60.00,Thursday
9,354512639.65965107
45,240258472.78500004
182,38775735.39708
294,104910507.87090174
319,0.0
629,73367148.62066823
682,328271746.7874132
695,2111282.856902861
709,416323443.7956673
733,416323443.7956673
760,0.0
785,0.0
798,0.0
2,4, 1, 4, 0,17, 0.00,60.00,Thursday
9,378777240.44862726
45,240258472.78500004
182,38775735.39708
294,117193887.07322856
319,0.0
629,73367148.62066823
682,353642500.4905005
695,2387883.645879051
709,448315171.40786537
733,448315171.40786537
760,23988000.0
785,0.0
798,0.0
2,4, 1, 4, 0,18, 0.00,60.00,Thursday
9,391109189.83064636
45,240258472.78500004
182,38775735.39708
294,141882874.78714729
319,0.0
629,73367148.62066823
682,396222351.6871505
695,2725833.0278982159
709,502212893.4878783
733,502212893.4878783
760,35982000.0
785,0.0
798,0.0
2,4, 1, 4, 0,19, 0.00,60.00,Thursday
9,307036020.78844508
45,160172315.18999998
182,34467320.35296
294,173902437.34131388
319,0.0
629,73367148.62066823
682,442846811.02333739
695,3047236.6248169338
709,561300507.8354515
733,561300507.8354515
760,35982000.0
785,0.0
798,0.0
2,4, 1, 4, 0,20, 0.00,60.00,Thursday
9,307308616.7157209
45,160172315.18999998
182,34467320.35296
294,199473721.6955847
319,0.0
629,73367148.62066823
682,474511677.7132031
695,3319832.5520928066
709,601365999.2592689
733,601365999.2592689
760,35982000.0
785,0.0
798,0.0
2,4, 1, 4, 0,21, 0.00,60.00,Thursday
9,276391348.0950097
45,133476929.325
182,30158905.30883999
294,208230383.38381664
319,0.0
629,73367148.62066823
682,478633897.522254
695,3406364.8405014828
709,606498295.2949176
733,606498295.2949176
760,35982000.0
785,0.0
798,0.0
2,4, 1, 4, 0,22, 0.00,60.00,Thursday
9,108342286.53400636
45,53390771.73
182,17233660.17648
294,44646113.905106369
319,0.0
629,1735854.627526362
682,43383674.541341837
695,0.0
709,54994108.92444343
733,54994108.92444343
760,35982000.0
785,0.0
798,0.0
2,4, 1, 4, 0,23, 0.00,60.00,Thursday
9,64650467.72700691
45,13347692.9325
182,8616830.08824
294,146576177.1938338
319,0.0
629,6703944.706266916
682,141025046.12145175
695,0.0
709,179161319.09489513
733,179161319.09489513
760,35982000.0
785,0.0
798,0.0
2,4, 1, 4, 0,24, 0.00,60.00,Thursday
9,69707640.50654064
45,13347692.9325
182,8616830.08824
294,223151961.1783565
319,0.0
629,11499534.814662198
682,214827029.57465268
695,261582.67113845284
709,273356906.17230066
733,273356906.17230066
760,35982000.0
785,0.0
798,0.0
2,5, 1, 5, 0, 1, 0.00,60.00,Friday
9,70734048.91197737
45,13347692.9325
182,8616830.08824
294,246507204.35411553
319,0.0
629,12162966.191649933
682,237023411.52733065
695,624559.699587451
709,300772900.0705739
733,300772900.0705739
760,35982000.0
785,0.0
798,0.0
2,5, 1, 5, 0, 2, 0.00,60.00,Friday
9,73261114.23121615
45,13347692.9325
182,8616830.08824
294,276019374.5137745
319,0.0
629,14529060.913637558
682,266038063.6942544
695,785530.2968385964
709,338103876.7316536
733,338103876.7316536
760,35982000.0
785,0.0
798,0.0
2,5, 1, 5, 0, 3, 0.00,60.00,Friday
9,72435377.66869298
45,13347692.9325
182,8616830.08824
294,272250513.04511097
319,0.0
629,13580807.093682049
682,261808114.45910839
695,908047.5542709222
709,332037542.290357
733,332037542.290357
760,35982000.0
785,0.0
798,0.0
2,5, 1, 5, 0, 4, 0.00,60.00,Friday
9,76406690.80790906
45,13347692.9325
182,8616830.08824
294,326881216.13807049
319,0.0
629,17377197.33784863
682,315198909.3924915
695,1082970.449320431
709,400494812.3325678
733,400494812.3325678
760,35982000.0
785,0.0
798,0.0
2,5, 1, 5, 0, 5, 0.00,60.00,Friday
9,77346700.02212078
45,13347692.9325
182,8616830.08824
294,357907716.2666549
319,0.0
629,18038992.90302675
682,344038284.86865988
695,1361184.0983540407
709,436248695.1197913
733,436248695.1197913
760,35982000.0
785,0.0
798,0.0
2,5, 1, 5, 0, 6, 0.00,60.00,Friday
9,83801369.02425358
45,13347692.9325
182,8616830.08824
294,452339329.47942617
319,0.0
629,24197549.826701616
682,435625459.4638483
695,1657296.176811971
709,553448000.21309
733,553448000.21309
760,35982000.0
785,0.0
798,0.0
2,5, 1, 5, 0, 7, 0.00,60.00,Friday
9,140142840.16054235
45,13347692.9325
182,8616830.08824
294,704218170.3752722
319,0.0
629,73367148.62066823
682,1114301852.5509704
695,8829168.519134112
709,1410504308.1052838
733,1410504308.1052838
760,35982000.0
785,0.0
798,0.0
2,5, 1, 5, 0, 8, 0.00,60.00,Friday
9,163004703.3874462
45,53390771.73
182,17233660.17648
294,523661865.6106863
319,0.0
629,73367148.62066823
682,923047464.6219115
695,7019122.860298003
709,1168982404.5472487
733,1168982404.5472487
760,11994000.0
785,0.0
798,0.0
2,5, 1, 5, 0, 9, 0.00,60.00,Friday
9,242022224.82049567
45,133476929.325
182,30158905.30883999
294,432045141.1989839
319,0.0
629,73367148.62066823
682,825388679.9585459
695,5019241.5659874849
709,1047215641.5523863
733,1047215641.5523863
760,0.0
785,0.0
798,0.0
2,5, 1, 5, 0,10, 0.00,60.00,Friday
9,355286341.196006
45,240258472.78500004
182,38775735.39708
294,321804230.3379029
319,0.0
629,73367148.62066823
682,697980572.7592186
695,2884984.3932578188
709,887578012.7297886
733,887578012.7297886
760,0.0
785,0.0
798,0.0
2,5, 1, 5, 0,11, 0.00,60.00,Friday
9,353696497.71583488
45,240258472.78500004
182,38775735.39708
294,264423647.4958176
319,0.0
629,73367148.62066823
682,610458453.3395814
695,1295140.9130866882
709,778061224.2571776
733,778061224.2571776
760,0.0
785,0.0
798,0.0
2,5, 1, 5, 0,12, 0.00,60.00,Friday
9,352668528.22486457
45,240258472.78500004
182,38775735.39708
294,211166497.54937823
319,0.0
629,73367148.62066823
682,531999787.5466763
695,267171.4221163719
709,679314066.435476
733,679314066.435476
760,0.0
785,0.0
798,0.0
2,5, 1, 5, 0,13, 0.00,60.00,Friday
9,352363977.86631986
45,240258472.78500004
182,38775735.39708
294,183737629.0417962
319,0.0
629,73329769.68423987
682,487196876.0968157
695,0.0
709,622520679.4911709
733,622520679.4911709
760,0.0
785,0.0
798,0.0
2,5, 1, 5, 0,14, 0.00,60.00,Friday
9,352363977.86631986
45,240258472.78500004
182,38775735.39708