Program Version,EnergyPlus, Version 9.2.0-921312fa1d, YMD=2020.12.22 17:52
1,5,Environment Title[],Latitude[deg],Longitude[deg],Time Zone[],Elevation[m]
2,8,Day of Simulation[],Month[],Day of Month[],DST Indicator[1=yes 0=no],Hour[],StartMinute[],EndMinute[],DayType
3,5,Cumulative Day of Simulation[],Month[],Day of Month[],DST Indicator[1=yes 0=no],DayType  ! When Daily Meters Requested
4,2,Cumulative Days of Simulation[],Month[]  ! When Monthly Meters Requested
5,1,Cumulative Days of Simulation[] ! When Run Period Meters Requested
6,1,Calendar Year of Simulation[] ! When Annual Meters Requested
9,1,Electricity:Facility [J] !Hourly
1851,1,Heating:Electricity [J] !Hourly
1993,1,Cooling:Electricity [J] !Hourly
45,1,InteriorLights:Electricity [J] !Hourly
1955,1,ExteriorLights:Electricity [J] !Hourly
432,1,InteriorEquipment:Electricity [J] !Hourly
1928,1,Fans:Electricity [J] !Hourly
2022,1,Pumps:Electricity [J] !Hourly
714,1,Gas:Facility [J] !Hourly
1905,1,Heating:Gas [J] !Hourly
738,1,WaterSystems:Gas [J] !Hourly
899,1,Heating:EnergyTransfer [J] !Hourly
924,1,Cooling:EnergyTransfer [J] !Hourly
1669,1,WaterSystems:EnergyTransfer [J] !Hourly
1826,1,HeatingCoils:EnergyTransfer [J] !Hourly
1980,1,CoolingCoils:EnergyTransfer [J] !Hourly
End of Data Dictionary
1,RUNPERIOD 1,  41.98, -87.92,  -6.00, 201.00
2,1, 1, 1, 0, 1, 0.00,60.00,Holiday
9,501855965.6971329
45,15146841.55919508
432,57896985.85326433
714,55897928.04094611
738,72000.0
899,402239631.3128921
924,13764587.50120306
1669,656357.8931907268
1826,399069226.10097369
1851,354408483.6682167
1905,55825928.04094611
1928,10260870.277633273
1955,64112400.0
1980,0.0
1993,0.0
2022,30384.33882352941
2,1, 1, 1, 0, 2, 0.00,60.00,Holiday
9,492850462.65198579
45,15146841.55919508
432,57896985.85326433
714,60778304.57516654
738,72000.0
899,400711216.2473894
924,11343051.78096816
1669,656357.8931907269
1826,395678169.32947507
1851,347113125.6693418
1905,60706304.57516654
1928,8550725.23136106
1955,64112400.0
1980,0.0
1993,0.0
2022,30384.33882352941
2,1, 1, 1, 0, 3, 0.00,60.00,Holiday
9,611995567.832585
45,15146841.55919508
432,57896985.85326433
714,83963057.71804537
738,4070686.2786596554
899,534419117.8484536
924,14068370.065894824
1669,656357.8931907268
1826,528034446.6936093
1851,464120549.54210069
1905,79892371.43938573
1928,10688406.539201325
1955,64112400.0
1980,0.0
1993,0.0
2022,30384.33882352941
2,1, 1, 1, 0, 4, 0.00,60.00,Holiday
9,500170580.839171
45,15146841.55919508
432,57896985.85326433
714,63433935.578424308
738,72000.0
899,410127551.9651104
924,11165878.90825487
1669,656357.8931907269
1826,405122792.31926646
1851,354433243.8565269
1905,63361935.578424308
1928,8550725.23136106
1955,64112400.0
1980,0.0
1993,0.0
2022,30384.33882352941
2,1, 1, 1, 0, 5, 0.00,60.00,Holiday
9,618480130.2696979
45,15146841.55919508
432,57896985.85326433
714,85696509.8405423
738,4070934.2140685708
899,542582325.800518
924,13911776.034630845
1669,656357.8931907268
1826,535905572.4803927
1851,470605111.97921368
1905,81625575.62647374
1928,10688406.539201325
1955,64112400.0
1980,0.0
1993,0.0
2022,30384.33882352941
2,1, 1, 1, 0, 6, 0.00,60.00,Holiday
9,503910422.8551216
45,15146841.55919508
432,57896985.85326433
714,64177977.544834587
738,72000.0
899,414662184.39237627
924,11065520.89579452
1669,1148626.3130837719
1826,409457867.9083453
1851,358173085.8724776
1905,64105977.544834587
1928,8550725.23136106
1955,64112400.0
1980,0.0
1993,0.0
2022,30384.33882352941
2,1, 1, 1, 0, 7, 0.00,60.00,Holiday
9,623943782.6511816
45,15146841.55919508
432,57896985.85326433
714,86689528.52322726
738,4070739.3557825267
899,549310739.1064098
924,13801070.135176717
1669,656357.8931907268
1826,542163795.6946532
1851,476068764.3606973
1905,82618789.16744474
1928,10688406.539201325
1955,64112400.0
1980,0.0
1993,0.0
2022,30384.33882352941
2,1, 1, 1, 0, 8, 0.00,60.00,Holiday
9,458999158.65752598
45,15146841.55919508
432,57896985.85326433
714,64790230.84516836
738,72000.0
899,412994063.9913444
924,10988917.27873039
1669,656357.8931907268
1826,407778006.35101667
1851,356003421.67488196
1905,64718230.84516836
1928,8550725.23136106
1955,21370800.0
1980,0.0
1993,0.0
2022,30384.33882352941
2,1, 1, 1, 0, 9, 0.00,60.00,Holiday
9,488480801.5273433
45,15146841.55919508
432,57896985.85326433
714,84260857.53238544
738,4070762.217995614
899,474857653.8788494
924,14017217.931974873
1669,656357.8931907268
1826,468870259.4883709
1851,404718183.236859
1905,80190095.31438983
1928,10688406.539201325
1955,0.0
1980,0.0
1993,0.0
2022,30384.33882352941
2,1, 1, 1, 0,10, 0.00,60.00,Holiday
9,342236032.2017968
45,15146841.55919508
432,57896985.85326433
714,58783985.19612321
738,72000.0
899,310085222.10383269
924,11475708.697910246
1669,656357.8931907269
1826,307580683.3760513
1851,260611095.21915279
1905,58711985.19612321
1928,8550725.23136106
1955,0.0
1980,0.0
1993,0.0
2022,30384.33882352941
2,1, 1, 1, 0,11, 0.00,60.00,Holiday
9,386885080.4412061
45,15146841.55919508
432,57896985.85326433
714,67642422.65026108
738,72000.0
899,361040761.94003608
924,17361065.30929937
1669,656357.8931907268
1826,357178800.27093067
1851,303122462.1507218
1905,67570422.65026108
1928,10688406.539201325
1955,0.0
1980,0.0
1993,0.0
2022,30384.33882352941
2,1, 1, 1, 0,12, 0.00,60.00,Holiday
9,292034499.82100096
45,15146841.55919508
432,57896985.85326433
714,51330647.229491148
738,4070578.9942859287
899,249618904.7728444
924,14670795.661515002
1669,984536.83978609
1826,248217617.42652113
1851,210409562.83835698
1905,47260068.23520522
1928,8550725.23136106
1955,0.0
1980,0.0
1993,0.0
2022,30384.33882352941
2,1, 1, 1, 0,13, 0.00,60.00,Holiday
9,355687215.08550736
45,15146841.55919508
432,57896985.85326433
714,57998871.58690484
738,4070645.968844484
899,315066109.7940918
924,17041251.237742276
1669,984536.83978609
1826,315067177.2894714
1851,271924596.7950231
1905,53928225.61806035
1928,10688406.539201325
1955,0.0
1980,0.0
1993,0.0
2022,30384.33882352941
2,1, 1, 1, 0,14, 0.00,60.00,Holiday
9,288261462.037884
45,15146841.55919508
432,57896985.85326433
714,38050940.59295006
738,72000.0
899,234238458.76055003
924,11998726.994057458
1669,1476805.2596791352
1826,237019677.52960009
1851,206636525.05524007
1905,37978940.59295006
1928,8550725.23136106
1955,0.0
1980,0.0
1993,0.0
2022,30384.33882352941
2,1, 1, 1, 0,15, 0.00,60.00,Holiday
9,349802358.680381
45,15146841.55919508
432,57896985.85326433
714,49364078.158388588
738,4070846.7608217957
899,299440050.5149311
924,15160670.65290479
1669,984536.83978609
1826,302274325.5079502
1851,266039740.38989673
1905,45293231.39756679
1928,10688406.539201325
1955,0.0
1980,0.0
1993,0.0
2022,30384.33882352941
2,1, 1, 1, 0,16, 0.00,60.00,Holiday
9,291708113.90496227
45,15146841.55919508
432,57896985.85326433
714,34157287.462679978
738,72000.0
899,234723219.5188104
924,12095846.345383812
1669,656357.8931907268
1826,237351406.89246226
1851,210083176.92231826
1905,34085287.462679978
1928,8550725.23136106
1955,0.0
1980,0.0
1993,0.0
2022,30384.33882352941
2,1, 1, 1, 0,17, 0.00,60.00,Holiday
9,411368858.9054593
45,15146841.55919508
432,57896985.85326433
714,47229302.95157132
738,4070806.444413902
899,316685151.1303463
924,14874453.955178384
1669,656357.8931907268
1826,319391437.820701
1851,284864640.6149751
1905,43158496.50715742
1928,10688406.539201325
1955,42741600.0
1980,0.0
1993,0.0
2022,30384.33882352941
2,1, 1, 1, 0,18, 0.00,60.00,Holiday
9,369523945.00984856
45,15146841.55919508
432,57896985.85326433
714,33659176.477235499
738,72000.0
899,248328714.61609806
924,11654599.448791508
1669,656357.8931907268
1826,250656349.208993
1851,223786608.02720458
1905,33587176.477235499
1928,8550725.23136106
1955,64112400.0
1980,0.0
1993,0.0
2022,30384.33882352941
2,1, 1, 1, 0,19, 0.00,60.00,Holiday
9,452401872.9160002
45,15146841.55919508
432,57896985.85326433
714,48997094.55425945
738,4070881.138393608
899,338766328.4274354
924,14559640.945297262
1669,656357.8931907268
1826,340467825.3582086
1851,304526854.62551596
1905,44926213.41586584
1928,10688406.539201325
1955,64112400.0
1980,0.0
1993,0.0
2022,30384.33882352941
2,1, 1, 1, 0,20, 0.00,60.00,Holiday
9,378932875.303827
45,15146841.55919508
432,57896985.85326433
714,34963864.61401771
738,72000.0
899,258848228.89791186
924,11582787.431194118
1669,656357.8931907268
1826,261109030.0123971
1851,233195538.3211829
1905,34891864.61401771
1928,8550725.23136106
1955,64112400.0
1980,0.0
1993,0.0
2022,30384.33882352941
2,1, 1, 1, 0,21, 0.00,60.00,Holiday
9,450194888.46571639
45,15146841.55919508
432,57896985.85326433
714,43912067.29986867
738,72000.0
899,335530358.37434366
924,14504919.930052273
1669,656357.8931907268
1826,337391924.01512709
1851,302319870.1752321
1905,43840067.29986867
1928,10688406.539201325
1955,64112400.0
1980,0.0
1993,0.0
2022,30384.33882352941
2,1, 1, 1, 0,22, 0.00,60.00,Holiday
9,377443557.3252319
45,15146841.55919508
432,57896985.85326433
714,38462464.373006198
738,4070938.648476801
899,257064591.93330688
924,11560268.318699519
1669,1148626.3130837719
1826,259219440.9222114
1851,231706220.34258796
1905,34391525.724529389
1928,8550725.23136106
1955,64112400.0
1980,0.0
1993,0.0
2022,30384.33882352941
2,1, 1, 1, 0,23, 0.00,60.00,Holiday
9,455420080.78806117
45,15146841.55919508
432,57896985.85326433
714,48236372.96224561
738,4070743.1588163587
899,341138092.639661
924,14477242.981112108
1669,656357.8931907268
1826,342877566.34032037
1851,307545062.4975769
1905,44165629.80342926
1928,10688406.539201325
1955,64112400.0
1980,0.0
1993,0.0
2022,30384.33882352941
2,1, 1, 1, 0,24, 0.00,60.00,Holiday
9,385670959.55447027
45,15146841.55919508
432,57896985.85326433
714,35259637.177785489
738,72000.0
899,266333747.59862767
924,11528647.76194991
1669,656357.8931907269
1826,268083732.3140546
1851,239933622.57182623
1905,35187637.177785489
1928,8550725.23136106
1955,64112400.0
1980,0.0
1993,0.0
2022,30384.33882352941
2,2, 1, 2, 0, 1, 0.00,60.00,Monday
9,488156285.15031948
45,15146841.55919508
432,77195981.13768575
714,48293916.92941627
738,72000.0
899,361193979.90940019
924,16326237.797734689
1669,822188.3656156191
1826,359559805.1189468
1851,320982271.57541379
1905,48221916.92941627
1928,10688406.539201325
1955,64112400.0
1980,0.0
1993,0.0
2022,30384.33882352941
2,2, 1, 2, 0, 2, 0.00,60.00,Monday
9,416256915.2001809
45,15146841.55919508
432,77195981.13768575
714,44124687.623105499
738,4070831.7112789
899,283909056.2036541
924,13184002.359045536
1669,822188.3656156191
1826,283263667.6625768
1851,251220582.93311549
1905,40053855.911826599
1928,8550725.23136106
1955,64112400.0
1980,0.0
1993,0.0
2022,30384.33882352941
2,2, 1, 2, 0, 3, 0.00,60.00,Monday
9,495085871.9001346
45,15146841.55919508
432,77195981.13768575
714,50737500.10366182
738,72000.0
899,370261082.0177217
924,16684682.816620712
1669,822188.3656156191
1826,368444258.4081583
1851,327911858.32522889
1905,50665500.10366182
1928,10688406.539201325
1955,64112400.0
1980,0.0
1993,0.0
2022,30384.33882352941
2,2, 1, 2, 0, 4, 0.00,60.00,Monday
9,415508492.92528989
45,15146841.55919508
432,77195981.13768575
714,43945284.47270033
738,4070911.4216493067
899,283071747.05648508
924,13179988.534214747
1669,822188.3656156191
1826,282371659.09906527
1851,250472160.65822444
1905,39874373.05105102
1928,8550725.23136106
1955,64112400.0
1980,0.0
1993,0.0
2022,30384.33882352941
2,2, 1, 2, 0, 5, 0.00,60.00,Monday
9,481902441.57477769
45,15146841.55919508
432,77195981.13768575
714,48755573.15281483
738,72000.0
899,354140961.12482008
924,16710042.353613109
1669,822188.3656156191
1826,353675286.5221238
1851,314728427.99987199
1905,48683573.15281483
1928,10688406.539201325
1955,64112400.0
1980,0.0
1993,0.0
2022,30384.33882352941
2,2, 1, 2, 0, 6, 0.00,60.00,Monday
9,409821519.509514
45,30293683.11839016
432,77195981.13768575
714,39053419.308650579
738,4071394.3566942077
899,261428484.33705426
924,13554819.051854525
1669,1315501.3849849906
1826,257623965.64481849
1851,229638345.6832534
1905,34982024.95195637
1928,8550725.23136106
1955,64112400.0
1980,0.0
1993,0.0
2022,30384.33882352941
2,2, 1, 2, 0, 7, 0.00,60.00,Monday
9,1239463117.809104
45,30293683.11839016
432,77195981.13768575
714,14493708.880282265
738,4071334.777867566
899,994789141.6483183
924,0.0
1669,1151063.7118618668
1826,1063342480.6490948
1851,1055004581.3671632
1905,10422374.102414698
1928,12826087.84704159
1955,64112400.0
1980,0.0
1993,0.0
2022,30384.33882352941
2,2, 1, 2, 0, 8, 0.00,60.00,Monday
9,1023983930.1909933
45,90881049.35517045
432,117654442.67614728
714,163660248.70139263
738,4073435.6552973219
899,709361296.7548865
924,0.0
1669,3124315.789339353
1826,908890616.4106864
1851,781221165.9738102
1905,159586813.0460953
1928,12826087.84704159
1955,21370800.0
1980,0.0
1993,0.0
2022,30384.338823529408
2,2, 1, 2, 0, 9, 0.00,60.00,Monday
9,1064175865.166136
45,272643148.0655114
432,253451924.59275989
714,139316729.81716777
738,8081113.987115835
899,528627942.3126581
924,39321327.739929128
1669,5755318.559309334
1826,630212812.9860414
1851,525224320.3219998
1905,131235615.83005193
1928,12826087.84704159
1955,0.0
1980,0.0
1993,0.0
2022,30384.33882352941
2,2, 1, 2, 0,10, 0.00,60.00,Monday
9,952048852.8248632
45,272643148.0655114
432,223397067.4499028
714,118729002.23405326
738,8082824.25960516
899,432639543.7458011
924,38594501.68720856
1669,6248631.578678705
1826,531669107.5031426
1851,443152165.12358418
1905,110646177.97444809
1928,12826087.84704159
1955,0.0
1980,0.0
1993,0.0
2022,30384.338823529408
2,2, 1, 2, 0,11, 0.00,60.00,Monday
9,890637996.9228464
45,272643148.0655114
432,216461331.18616648
714,96446900.85286786
738,8082736.797901107
899,367757021.35337927
924,38525444.33159697
1669,6413069.251801831
1826,459368376.72927698
1851,388677045.4853035
1905,88364164.05496678
1928,12826087.84704159
1955,0.0
1980,0.0
1993,0.0
2022,30384.338823529408
2,2, 1, 2, 0,12, 0.00,60.00,Monday
9,849388962.6402965
45,272643148.0655114
432,223397067.4499028
714,86450325.06131087
738,12093703.56000505
899,311705759.96986547
924,40199575.600305158
1669,7728570.6367868189
1826,399977572.1400619
1851,340492274.9390173
1905,74356621.50130582
1928,12826087.84704159
1955,0.0
1980,0.0
1993,0.0
2022,30384.338823529408
2,2, 1, 2, 0,13, 0.00,60.00,Monday
9,840509235.3258171
45,272643148.0655114
432,221437412.82482205
714,81413761.29797583
738,12099145.521397515
899,298399441.0046515
924,41938507.117303039
1669,9372947.368018058
1826,389023894.87088099
1851,333572202.24961838
1905,69314615.7765783
1928,12826087.84704159
1955,0.0
1980,0.0
1993,0.0
2022,30384.338823529408
2,2, 1, 2, 0,14, 0.00,60.00,Monday
9,794896813.4413487
45,272643148.0655114
432,229176847.66968299
714,95144476.8118083
738,12098828.80702022
899,244201887.56739957
924,47592928.29975252
1669,8879634.348648688
1826,346656863.92411985
1851,280220345.52028939
1905,83045648.00478809
1928,12826087.84704159
1955,0.0
1980,0.0
1993,0.0
2022,30384.338823529408
2,2, 1, 2, 0,15, 0.00,60.00,Monday
9,769817865.3667998
45,272643148.0655114
432,216461331.18616648
714,110659872.78751354
738,11700358.14595164
899,232251354.00619263
924,52686482.36960046
1669,5590880.88618621
1826,347024525.6425065
1851,267856913.92925699
1905,98959514.6415619
1928,12826087.84704159
1955,0.0
1980,0.0
1993,0.0
2022,30384.338823529408
2,2, 1, 2, 0,16, 0.00,60.00,Monday
9,758694841.6330437
45,272643148.0655114
432,216461331.18616648
714,91943242.70816176
738,4461871.724674143
899,224252128.42158727
924,61834541.978908088
1669,5426443.213063086
1826,326718986.982291
1851,256733890.1955009
1905,87481370.98348764
1928,12826087.84704159
1955,0.0
1980,0.0
1993,0.0
2022,30384.338823529408
2,2, 1, 2, 0,17, 0.00,60.00,Monday
9,805371308.457648
45,272643148.0655114
432,226864935.58177094
714,86972482.88725458
738,12091378.61623366
899,222155843.11462448
924,72188291.75101587
1669,7235257.617417449
1826,310170036.0413175
1851,250265152.6245008
1905,74881104.27102092
1928,12826087.84704159
1955,42741600.0
1980,0.0
1993,0.0
2022,30384.338823529408
2,2, 1, 2, 0,18, 0.00,60.00,Monday
9,789198844.1974291
45,212055781.82873113
432,226061237.00064618
714,97218620.71993111
738,8077693.24748824
899,220226179.07436089
924,66035194.93158451
1669,4275379.501201221
1826,345425695.1601409
1851,274112953.18218657
1905,89140927.47244288
1928,12826087.84704159
1955,64112400.0
1980,0.0
1993,0.0
2022,30384.338823529408
2,2, 1, 2, 0,19, 0.00,60.00,Monday
9,670866990.9806341
45,151468415.59195087
432,129665444.23400118
714,95058051.32219205
738,4073867.529893075
899,219624219.38015915
924,41490935.6061541
1669,3453191.1355856016
1826,385551606.0026562
1851,312764258.96881708
1905,90984183.79229895
1928,12826087.84704159
1955,64112400.0
1980,0.0
1993,0.0
2022,30384.33882352941
2,2, 1, 2, 0,20, 0.00,60.00,Monday
9,668532133.3803929
45,151468415.59195087
432,120417795.88235286
714,81338638.67857166
738,4072587.4727431049
899,215269662.7981331
924,30989585.717898985
1669,2466565.096846857
1826,381489890.684887
1851,319677049.72022417
1905,77266051.20582855
1928,12826087.84704159
1955,64112400.0
1980,0.0
1993,0.0
2022,30384.338823529408
2,2, 1, 2, 0,21, 0.00,60.00,Monday
9,623518425.562348
45,90881049.35517045
432,101118800.5979314
714,74761179.08272963
738,4073121.6053606986
899,218576390.21435083
924,16693600.792265384
1669,2795440.4430931059
1826,411100149.40527638
1851,354549703.4233812
1905,70688057.47736892
1928,12826087.84704159
1955,64112400.0
1980,0.0
1993,0.0
2022,30384.338823529408
2,2, 1, 2, 0,22, 0.00,60.00,Monday
9,620315295.0838732
45,90881049.35517045
432,96494976.4221072
714,65626144.77358478
738,4071323.2929829468
899,215921757.49560596
924,13242747.186784978
1669,1315501.3849849906
1826,405214254.30521187
1851,355970397.12073037
1905,61554821.48060184
1928,12826087.84704159
1955,64112400.0
1980,0.0
1993,0.0
2022,30384.338823529408
2,2, 1, 2, 0,23, 0.00,60.00,Monday
9,171632448.59489949
45,30293683.11839016
432,77195981.13768575
714,72000.0
738,72000.0
899,10097894.372796718
924,0.0
1669,822188.3656156191
1826,0.0
1851,0.0
1905,0.0
1928,0.0
1955,64112400.0
1980,0.0
1993,0.0
2022,30384.33882352941
2,2, 1, 2, 0,24, 0.00,60.00,Monday
9,176167821.190491
45,15146841.55919508
432,77195981.13768575
714,11043980.89696948
738,4070938.6015916888
899,43389782.793974209
924,10888218.835059749
1669,822188.3656156191
1826,23072783.885669277
1851,17494350.049367045
1905,6973042.295377791
1928,2187864.1054195717
1955,64112400.0
1980,0.0
1993,0.0
2022,30384.338823529408
2,3, 1, 3, 0, 1, 0.00,60.00,Tuesday
9,199570462.3494649
45,15146841.55919508
432,77195981.13768575
714,16295085.723302143
738,72000.0
899,78516235.26523283
924,16268704.8576145
1669,823896.3607520128
1826,52416883.71670301
1851,39438415.13806129
1905,16223085.723302143
1928,3646440.175699286
1955,64112400.0
1980,0.0
1993,0.0
2022,30384.33882352941
2,3, 1, 3, 0, 2, 0.00,60.00,Tuesday
9,217794570.54301284
45,15146841.55919508
432,77195981.13768575
714,19182448.443046865
738,4071183.430667833
899,78075820.06318498
924,30245732.1489569
1669,823896.3607520127
1826,67534822.55100569
1851,55445810.54110247
1905,15111265.012379032
1928,5863152.966205979
1955,64112400.0
1980,0.0
1993,0.0
2022,30384.33882352941
2,3, 1, 3, 0, 3, 0.00,60.00,Tuesday
9,242551545.0564248
45,15146841.55919508
432,77195981.13768575
714,21765575.458649734
738,72000.0
899,106408872.40087378
924,35410821.413407158
1669,823896.3607520128
1826,96091857.17988272
1851,78736996.81296295
1905,21693575.458649734
1928,7328941.207757473
1955,64112400.0
1980,0.0
1993,0.0
2022,30384.33882352941
2,3, 1, 3, 0, 4, 0.00,60.00,Tuesday
9,254325220.10063765
45,15146841.55919508
432,77195981.13768575
714,22226992.20513282
738,4070901.4673422814
899,101946296.68361295
924,49684891.539218317
1669,823896.3607520128
1826,103365831.71294549
1851,88840959.12271308
1905,18156090.737790534
1928,8998653.94222024
1955,64112400.0
1980,0.0
1993,0.0
2022,30384.33882352941
2,3, 1, 3, 0, 5, 0.00,60.00,Tuesday
9,287732490.6723445
45,15146841.55919508
432,77195981.13768575
714,27991596.085298309
738,72000.0
899,143650158.15234
924,50931475.62023298
1669,823896.3607520128
1826,143566047.0319662
1851,121230370.16372757
1905,27919596.085298309
1928,10016513.472912554
1955,64112400.0
1980,0.0
1993,0.0
2022,30384.33882352941
2,3, 1, 3, 0, 6, 0.00,60.00,Tuesday
9,305145626.45019796
45,30293683.11839016
432,77195981.13768575
714,28865562.785165088
738,4071693.100590438
899,146697128.88284294
924,47000283.32844856
1669,1318234.1772032208
1826,144125655.3053084
1851,124290559.55764868
1905,24793869.68457465
1928,9222618.29764983
1955,64112400.0
1980,0.0
1993,0.0
2022,30384.33882352941
2,3, 1, 3, 0, 7, 0.00,60.00,Tuesday
9,916729673.5356056
45,30293683.11839016
432,77195981.13768575
714,5536292.599222186
738,72000.0
899,617552169.0175444
924,0.0
1669,1153454.9050528182
1826,736642571.1730422
1851,732271137.0936644
1905,5464292.599222186
1928,12826087.84704159
1955,64112400.0
1980,0.0
1993,0.0
2022,30384.33882352941
2,3, 1, 3, 0, 8, 0.00,60.00,Tuesday
9,766184340.1290143
45,90881049.35517045
432,117654442.67614728
714,186777539.63935945
738,8074643.566803281
899,427134551.82609859
924,22221759.48674615
1669,3130806.170857649
1826,666383892.7698763
1851,523421575.9118312
1905,178702896.0725562
1928,12826087.84704159
1955,21370800.0
1980,0.0
1993,0.0
2022,30384.338823529408
2,3, 1, 3, 0, 9, 0.00,60.00,Tuesday
9,880628328.4924445
45,272643148.0655114
432,253451924.59275989
714,178392474.63075573
738,8081657.972747995
899,324394638.10302379
924,62459689.13375548
1669,5767274.52526409
1826,477925436.97471418
1851,341676783.64830806
1905,170310816.65800775
1928,12826087.84704159
1955,0.0
1980,0.0
1993,0.0
2022,30384.338823529408
2,3, 1, 3, 0,10, 0.00,60.00,Tuesday
9,799222836.0697569
45,272643148.0655114
432,223397067.4499028
714,179490560.9823032
738,8082190.372234322
899,271055253.60562947
924,68672124.20394223
1669,6261612.341715299
1826,427452844.85653278
1851,290326148.36847767
1905,171408370.61006887
1928,12826087.84704159
1955,0.0
1980,0.0
1993,0.0
2022,30384.338823529408
2,3, 1, 3, 0,11, 0.00,60.00,Tuesday
9,758890052.5984359
45,272643148.0655114
432,216461331.18616648
714,170797137.50538347
738,8082830.733489858
899,239561957.88587503
924,76358172.48697576
1669,6426391.6138657019
1826,387100546.5784079
1851,256929101.16089297
1905,162714306.7718936
1928,12826087.84704159
1955,0.0
1980,0.0
1993,0.0
2022,30384.338823529408
2,3, 1, 3, 0,12, 0.00,60.00,Tuesday
9,741865222.9296755
45,272643148.0655114
432,223397067.4499028
714,161404022.68812479
738,12092594.590666607
899,217792268.1527728
924,84522289.77120939
1669,7744625.791068921
1826,352417677.7063631
1851,232968535.22839649
1905,149311428.09745819
1928,12826087.84704159
1955,0.0
1980,0.0
1993,0.0
2022,30384.338823529408
2,3, 1, 3, 0,13, 0.00,60.00,Tuesday
9,750932017.7120733
45,272643148.0655114
432,221437412.82482205
714,148380518.4072412
738,12097899.04513695
899,215604216.97431288
924,76639399.28186435
1669,9392418.512572945
1826,353021080.125558
1851,243994984.63587458
1905,136282619.36210425
1928,12826087.84704159
1955,0.0
1980,0.0
1993,0.0
2022,30384.338823529408
2,3, 1, 3, 0,14, 0.00,60.00,Tuesday
9,713434057.3380088
45,272643148.0655114
432,229176847.66968299
714,141663383.64815016
738,12097690.735570882
899,187077191.13497366
924,98003056.37486007
1669,8898080.69612174
1826,302410143.74701288
1851,198757589.41694946
1905,129565692.91257924
1928,12826087.84704159
1955,0.0
1980,0.0
1993,0.0
2022,30384.338823529408
2,3, 1, 3, 0,15, 0.00,60.00,Tuesday
9,691083592.1060722
45,272643148.0655114
432,216461331.18616648
714,135288179.70681492
738,8081357.229156397
899,178560737.6591567
924,102326269.7078234
1669,5602495.253113689
1826,290888098.65065619
1851,189122640.66852934
1905,127206822.47765851
1928,12826087.84704159
1955,0.0
1980,0.0
1993,0.0
2022,30384.338823529408
2,3, 1, 3, 0,16, 0.00,60.00,Tuesday
9,686515847.2458997
45,272643148.0655114
432,216461331.18616648
714,133377757.5118188
738,8080628.9170796689
899,174809307.99060909
924,106557101.05370608
1669,5437715.980963286
1826,284792598.6841482
1851,184554895.8083569
1905,125297128.59473911
1928,12826087.84704159
1955,0.0
1980,0.0
1993,0.0
2022,30384.338823529408
2,3, 1, 3, 0,17, 0.00,60.00,Tuesday
9,744976129.5065714
45,272643148.0655114
432,226864935.58177094
714,135476846.98635493
738,12091411.276078657
899,180725578.25139017
924,110681532.66930092
1669,7250287.974617713
1826,288578322.2416452
1851,189869973.67342419
1905,123385435.71027625
1928,12826087.84704159
1955,42741600.0
1980,0.0
1993,0.0
2022,30384.338823529408
2,3, 1, 3, 0,18, 0.00,60.00,Tuesday
9,730611177.1055756
45,212055781.82873113
432,226061237.00064618
714,130031598.44701407
738,4074928.26847915
899,181446633.81713347
924,103884913.95560488
1669,4284261.075910467
1826,316290622.233161
1851,215525286.090333
1905,125956670.17853493
1928,12826087.84704159
1955,64112400.0
1980,0.0
1993,0.0
2022,30384.338823529408
2,3, 1, 3, 0,19, 0.00,60.00,Tuesday
9,617733951.7848858
45,151468415.59195087
432,129665444.23400118
714,140654808.2432389
738,8076710.661857696
899,185122571.443707
924,75677880.74998778
1669,3460364.715158454
1826,365693697.8381736
1851,259631219.77306865
1905,132578097.5813812
1928,12826087.84704159
1955,64112400.0
1980,0.0
1993,0.0
2022,30384.33882352941
2,3, 1, 3, 0,20, 0.00,60.00,Tuesday
9,615599245.2729739
45,151468415.59195087
432,120417795.88235286
714,139319158.2968744
738,4072774.7256576179
899,189989323.3620863
924,70553111.31376973
1669,2471689.082256038
1826,374941268.46977868
1851,266744161.61280523
1905,135246383.57121677
1928,12826087.84704159
1955,64112400.0
1980,0.0
1993,0.0
2022,30384.338823529408
2,3, 1, 3, 0,21, 0.00,60.00,Tuesday
9,580401559.4543388
45,90881049.35517045
432,101118800.5979314
714,144745745.65738545
738,4073095.822244688
899,194131582.16026924
924,44377666.11319305
1669,2801247.6265568446
1826,423970957.1834844
1851,311432837.3153718
1905,140672649.83514077
1928,12826087.84704159
1955,64112400.0
1980,0.0
1993,0.0
2022,30384.338823529408
2,3, 1, 3, 0,22, 0.00,60.00,Tuesday
9,589804902.2016664
45,90881049.35517045
432,96494976.4221072
714,146832494.19592384
738,4071429.0681339295
899,202145998.18799377
924,36627394.01358284
1669,1318234.1772032206
1826,439668856.3407555
1851,325460004.2385236
1905,142761065.1277899
1928,12826087.84704159
1955,64112400.0
1980,0.0
1993,0.0
2022,30384.338823529408
2,3, 1, 3, 0,23, 0.00,60.00,Tuesday
9,174605889.10566036
45,30293683.11839016
432,77195981.13768575
714,3611221.1597624819
738,72000.0
899,17141826.92106853
924,1942895.0296485364
1669,823896.3607520128
1826,5440173.421000935
1851,2608796.49319095
1905,3539221.1597624819
1928,364644.0175699286
1955,64112400.0
1980,0.0
1993,0.0
2022,30384.33882352941
2,3, 1, 3, 0,24, 0.00,60.00,Tuesday
9,196079329.09798474
45,15146841.55919508
432,77195981.13768575
714,24680503.132829396
738,4070727.027911376
899,82346257.44861505
924,19373789.469667816
1669,823896.3607520128
1826,52435102.7705155
1851,35947281.886581089
1905,20609776.104918019
1928,3646440.175699286
1955,64112400.0
1980,0.0
1993,0.0
2022,30384.33882352941
2,4, 1, 4, 0, 1, 0.00,60.00,Wednesday
9,208142539.67058517
45,15146841.55919508
432,77195981.13768575
714,22467191.330611294
738,72000.0
899,84153883.9839758
924,22870576.256401168
1669,825570.8460910071
1826,65529218.94065006
1851,47613065.876161027
1905,22395191.330611294
1928,4043866.758719755
1955,64112400.0
1980,0.0
1993,0.0
2022,30384.33882352941
2,4, 1, 4, 0, 2, 0.00,60.00,Wednesday
9,269626712.85993656
45,15146841.55919508
432,77195981.13768575
714,34053487.45326245
738,4070806.572704664
899,125701149.95470563
924,69417990.46343634
1669,825570.8460910071
1826,126438843.9894771
1851,102452699.28503087
1905,29982680.88055779
1928,10688406.539201325
1955,64112400.0
1980,0.0
1993,0.0
2022,30384.33882352941
2,4, 1, 4, 0, 3, 0.00,60.00,Wednesday
9,265590349.5714556
45,15146841.55919508
432,77195981.13768575
714,27655231.968277795
738,72000.0
899,121274727.45468551
924,52433979.61997004
1669,825570.8460910071
1826,122620602.87901242
1851,100554017.30439019
1905,27583231.968277795
1928,8550725.23136106
1955,64112400.0
1980,0.0
1993,0.0
2022,30384.33882352941
2,4, 1, 4, 0, 4, 0.00,60.00,Wednesday
9,300018514.61114796
45,15146841.55919508
432,77195981.13768575
714,39098885.53545217
738,4070875.7522300065
899,158810676.02102236
924,62532712.12424744
1669,825570.846091007
1826,160866908.86281998
1851,132844501.03624225
1905,35028009.78322217
1928,10688406.539201325
1955,64112400.0
1980,0.0
1993,0.0
2022,30384.33882352941
2,4, 1, 4, 0, 5, 0.00,60.00,Wednesday
9,290651987.16114428
45,15146841.55919508
432,77195981.13768575
714,32027165.56874431
738,72000.0
899,149156249.54111494
924,48067194.38325738
1669,825570.8460910069
1826,151179787.34907425
1851,125615654.89407879
1905,31955165.56874431
1928,8550725.23136106
1955,64112400.0
1980,0.0
1993,0.0
2022,30384.33882352941
2,4, 1, 4, 0, 6, 0.00,60.00,Wednesday
9,334396914.7083998
45,30293683.11839016
432,77195981.13768575
714,42981295.97637555
738,4071700.4739476477
899,184483812.68071128
924,56925348.108214188
1669,1320913.3537456117
1826,183203735.9762413
1851,152076059.57429896
1905,38909595.5024279
1928,10688406.539201325
1955,64112400.0
1980,0.0
1993,0.0
2022,30384.33882352941
2,4, 1, 4, 0, 7, 0.00,60.00,Wednesday
9,876869298.5132594
45,30293683.11839016
432,77195981.13768575
714,4505473.921695229
738,72000.0
899,571462409.7480192
924,40490.71267840132
1669,1155799.18452741
1826,695957541.2086746
1851,692410762.0713184
1905,4433473.921695229
1928,12826087.84704159
1955,64112400.0
1980,0.0
1993,0.0
2022,30384.33882352941
2,4, 1, 4, 0, 8, 0.00,60.00,Wednesday
9,733618110.0560268
45,90881049.35517045
432,117654442.67614728
714,174673340.61754478
738,8075288.758152728
899,392421374.0015363
924,25859433.360376598
1669,3137169.2151458275
1826,624133787.3263575
1851,490855345.8388438
1905,166598051.85939206
1928,12826087.84704159
1955,21370800.0
1980,0.0
1993,0.0
2022,30384.338823529408
2,4, 1, 4, 0, 9, 0.00,60.00,Wednesday
9,852882585.70012
45,272643148.0655114
432,253451924.59275989
714,147577685.33963935
738,8081287.153276705
899,298289226.193122
924,71578030.68662484
1669,5778995.92263705