Program Version,EnergyPlus, Version 9.2.0-921312fa1d, YMD=2020.12.22 18:01
1,5,Environment Title[],Latitude[deg],Longitude[deg],Time Zone[],Elevation[m]
2,8,Day of Simulation[],Month[],Day of Month[],DST Indicator[1=yes 0=no],Hour[],StartMinute[],EndMinute[],DayType
3,5,Cumulative Day of Simulation[],Month[],Day of Month[],DST Indicator[1=yes 0=no],DayType  ! When Daily Meters Requested
4,2,Cumulative Days of Simulation[],Month[]  ! When Monthly Meters Requested
5,1,Cumulative Days of Simulation[] ! When Run Period Meters Requested
6,1,Calendar Year of Simulation[] ! When Annual Meters Requested
9,1,Electricity:Facility [J] !Hourly
1153,1,Heating:Electricity [J] !Hourly
1216,1,Cooling:Electricity [J] !Hourly
45,1,InteriorLights:Electricity [J] !Hourly
1020,1,ExteriorLights:Electricity [J] !Hourly
307,1,InteriorEquipment:Electricity [J] !Hourly
1057,1,Fans:Electricity [J] !Hourly
1116,1,Gas:Facility [J] !Hourly
1140,1,Heating:Gas [J] !Hourly
497,1,Heating:EnergyTransfer [J] !Hourly
522,1,Cooling:EnergyTransfer [J] !Hourly
1103,1,HeatingCoils:EnergyTransfer [J] !Hourly
1203,1,CoolingCoils:EnergyTransfer [J] !Hourly
End of Data Dictionary
1,RUNPERIOD 1,  41.98, -87.92,  -6.00, 201.00
2,1, 1, 1, 0, 1, 0.00,60.00,Holiday
9,80428604.659737
45,14473678.14936
307,4853719.3248000009
497,324041841.119815
522,0.0
1020,48596400.0
1057,12504807.185577009
1103,315926141.15851989
1116,398503244.13135066
1140,398503244.13135066
1153,0.0
1203,0.0
1216,0.0
2,1, 1, 1, 0, 2, 0.00,60.00,Holiday
9,80907045.12075667
45,14473678.14936
307,4853719.3248000009
497,336555492.8210274
522,0.0
1020,48596400.0
1057,12983247.646596682
1103,327759154.79832246
1116,413362859.76386937
1140,413362859.76386937
1153,0.0
1203,0.0
1216,0.0
2,1, 1, 1, 0, 3, 0.00,60.00,Holiday
9,85415123.23927957
45,14473678.14936
307,4853719.3248000009
497,453679480.4142153
522,0.0
1020,48596400.0
1057,17491325.765119576
1103,444564766.6479595
1116,560663254.5199375
1140,560663254.5199375
1153,0.0
1203,0.0
1216,0.0
2,1, 1, 1, 0, 4, 0.00,60.00,Holiday
9,81161717.3470992
45,14473678.14936
307,4853719.3248000009
497,342973781.06928279
522,0.0
1020,48596400.0
1057,13237919.872939196
1103,333943816.6169188
1116,421139427.3358897
1140,421139427.3358897
1153,0.0
1203,0.0
1216,0.0
2,1, 1, 1, 0, 5, 0.00,60.00,Holiday
9,85817461.56806018
45,14473678.14936
307,4853719.3248000009
497,464334782.61914977
522,0.0
1020,48596400.0
1057,17893664.093900175
1103,454974935.3059048
1116,573767355.8224113
1140,573767355.8224113
1153,0.0
1203,0.0
1216,0.0
2,1, 1, 1, 0, 6, 0.00,60.00,Holiday
9,81389580.50658494
45,14473678.14936
307,4853719.3248000009
497,349018059.0866742
522,0.0
1020,48596400.0
1057,13465783.032424951
1103,339844952.9341167
1116,428574154.0460313
1140,428574154.0460313
1153,0.0
1203,0.0
1216,0.0
2,1, 1, 1, 0, 7, 0.00,60.00,Holiday
9,86200363.82885784
45,14473678.14936
307,4853719.3248000009
497,474585703.941178
522,0.0
1020,48596400.0
1057,18276566.354697858
1103,464999343.64963868
1116,586404518.1840997
1140,586404518.1840997
1153,0.0
1203,0.0
1216,0.0
2,1, 1, 1, 0, 8, 0.00,60.00,Holiday
9,49116274.89374909
45,14473678.14936
307,4853719.3248000009
497,352383012.5925557
522,0.0
1020,16198800.0
1057,13590077.419589099
1103,343145092.0120281
1116,432735718.1276739
1140,432735718.1276739
1153,0.0
1203,0.0
1216,0.0
2,1, 1, 1, 0, 9, 0.00,60.00,Holiday
9,92142947.83213502
45,28947356.29872
307,9707438.649600001
497,687330700.423217
522,0.0
1020,0.0
1057,53488152.88381505
1103,1051613141.1929646
1116,1325643685.3159598
1140,1325643685.3159598
1153,0.0
1203,0.0
1216,0.0
2,1, 1, 1, 0,10, 0.00,60.00,Holiday
9,92142947.83213502
45,28947356.29872
307,9707438.649600001
497,454695635.1801645
522,0.0
1020,0.0
1057,53488152.88381505
1103,788891621.1818117
1116,994554915.3961145
1140,994554915.3961145
1153,0.0
1203,0.0
1216,0.0
2,1, 1, 1, 0,11, 0.00,60.00,Holiday
9,188692455.37789507
45,115789425.19488
307,19414877.299200003
497,338055986.2475724
522,0.0
1020,0.0
1057,53488152.88381505
1103,646517090.1572359
1116,815067992.8754447
1140,815067992.8754447
1153,0.0
1203,0.0
1216,0.0
2,1, 1, 1, 0,12, 0.00,60.00,Holiday
9,188692455.37789507
45,115789425.19488
307,19414877.299200003
497,281805929.3966434
522,0.0
1020,0.0
1057,53488152.88381505
1103,567396563.3806952
1116,715325971.4700784
1140,715325971.4700784
1153,0.0
1203,0.0
1216,0.0
2,1, 1, 1, 0,13, 0.00,60.00,Holiday
9,253058793.74173508
45,173684137.79232
307,25886503.0656
497,219292021.18554134
522,0.0
1020,0.0
1057,53488152.88381505
1103,486693272.2658917
1116,613555139.3605166
1140,613555139.3605166
1153,0.0
1203,0.0
1216,0.0
2,1, 1, 1, 0,14, 0.00,60.00,Holiday
9,253058793.74173508
45,173684137.79232
307,25886503.0656
497,192142186.38153706
522,0.0
1020,0.0
1057,53488152.88381505
1103,444697197.81487008
1116,560597557.5058673
1140,560597557.5058673
1153,0.0
1203,0.0
1216,0.0
2,1, 1, 1, 0,15, 0.00,60.00,Holiday
9,253058793.74173508
45,173684137.79232
307,25886503.0656
497,176798899.17662473
522,0.0
1020,0.0
1057,53488152.88381505
1103,423195471.92951509
1116,533483106.5746884
1140,533483106.5746884
1153,0.0
1203,0.0
1216,0.0
2,1, 1, 1, 0,16, 0.00,60.00,Holiday
9,253058793.74173508
45,173684137.79232
307,25886503.0656
497,171457274.50184084
522,0.0
1020,0.0
1057,53488152.88381505
1103,417936523.64441546
1116,526851176.14903929
1140,526851176.14903929
1153,0.0
1203,0.0
1216,0.0
2,1, 1, 1, 0,17, 0.00,60.00,Holiday
9,285456393.7417351
45,173684137.79232
307,25886503.0656
497,168317766.8350849
522,0.0
1020,32397600.0
1057,53488152.88381505
1103,414833269.55234029
1116,522936510.6658404
1140,522936510.6658404
1153,0.0
1203,0.0
1216,0.0
2,1, 1, 1, 0,18, 0.00,60.00,Holiday
9,237288855.37789504
45,115789425.19488
307,19414877.299200003
497,397428172.7324308
522,0.0
1020,48596400.0
1057,53488152.88381505
1103,648670500.480553
1116,817815964.8760409
1140,817815964.8760409
1153,0.0
1203,0.0
1216,0.0
2,1, 1, 1, 0,19, 0.00,60.00,Holiday
9,172922517.0140551
45,57894712.59744
307,12943251.5328
497,441348004.6357226
522,0.0
1020,48596400.0
1057,53488152.88381505
1103,699955827.0366621
1116,882493843.5365286
1140,882493843.5365286
1153,0.0
1203,0.0
1216,0.0
2,1, 1, 1, 0,20, 0.00,60.00,Holiday
9,68955397.3574956
45,14473678.14936
307,4853719.3248000009
497,27234325.486514674
522,0.0
1020,48596400.0
1057,1031599.883335609
1103,26440439.057406915
1116,33490323.250951977
1140,33490323.250951977
1153,0.0
1203,0.0
1216,0.0
2,1, 1, 1, 0,21, 0.00,60.00,Holiday
9,72494264.64780897
45,14473678.14936
307,4853719.3248000009
497,118817013.9783583
522,0.0
1020,48596400.0
1057,4570467.173648955
1103,114925367.52084892
1116,145031472.96248264
1140,145031472.96248264
1153,0.0
1203,0.0
1216,0.0
2,1, 1, 1, 0,22, 0.00,60.00,Holiday
9,73279677.02960116
45,14473678.14936
307,4853719.3248000009
497,139159551.78733317
522,0.0
1020,48596400.0
1057,5355879.5554411639
1103,134990777.14073045
1116,170368412.10822857
1140,170368412.10822857
1153,0.0
1203,0.0
1216,0.0
2,1, 1, 1, 0,23, 0.00,60.00,Holiday
9,74724879.96413315
45,14473678.14936
307,4853719.3248000009
497,176443150.27968443
522,0.0
1020,48596400.0
1057,6801082.489973146
1103,171055620.367486
1116,215727784.90097044
1140,215727784.90097044
1153,0.0
1203,0.0
1216,0.0
2,1, 1, 1, 0,24, 0.00,60.00,Holiday
9,74709421.69908895
45,14473678.14936
307,4853719.3248000009
497,176159228.62054307
522,0.0
1020,48596400.0
1057,6785624.224928936
1103,171254057.45310707
1116,216084882.44372148
1140,216084882.44372148
1153,0.0
1203,0.0
1216,0.0
2,2, 1, 2, 0, 1, 0.00,60.00,Tuesday
9,78326563.02378518
45,14473678.14936
307,6471625.7664
497,227711451.8647992
522,0.0
1020,48596400.0
1057,8784859.108025179
1103,221243801.74500976
1116,278974033.5018782
1140,278974033.5018782
1153,0.0
1203,0.0
1216,0.0
2,2, 1, 2, 0, 2, 0.00,60.00,Tuesday
9,78034744.63792975
45,14473678.14936
307,6471625.7664
497,220347682.53945995
522,0.0
1020,48596400.0
1057,8493040.722169757
1103,214779825.76608093
1116,270984112.77764579
1140,270984112.77764579
1153,0.0
1203,0.0
1216,0.0
2,2, 1, 2, 0, 3, 0.00,60.00,Tuesday
9,79138978.71627954
45,14473678.14936
307,6471625.7664
497,248693200.63422237
522,0.0
1020,48596400.0
1057,9597274.80051953
1103,241961027.48075909
1116,305087627.5933796
1140,305087627.5933796
1153,0.0
1203,0.0
1216,0.0
2,2, 1, 2, 0, 4, 0.00,60.00,Tuesday
9,78360910.42490842
45,14473678.14936
307,6471625.7664
497,228754124.41524948
522,0.0
1020,48596400.0
1057,8819206.509148417
1103,223028033.76876775
1116,281375021.19638648
1140,281375021.19638648
1153,0.0
1203,0.0
1216,0.0
2,2, 1, 2, 0, 5, 0.00,60.00,Tuesday
9,78749257.74477424
45,14473678.14936
307,6471625.7664
497,238603658.61153896
522,0.0
1020,48596400.0
1057,9207553.829014244
1103,232149595.3159725
1116,292722708.5247169
1140,292722708.5247169
1153,0.0
1203,0.0
1216,0.0
2,2, 1, 2, 0, 6, 0.00,60.00,Tuesday
9,77478197.0163541
45,14473678.14936
307,6471625.7664
497,205906203.19033889
522,0.0
1020,48596400.0
1057,7936493.100594105
1103,200510225.53905953
1116,252960126.62634043
1140,252960126.62634043
1153,0.0
1203,0.0
1216,0.0
2,2, 1, 2, 0, 7, 0.00,60.00,Tuesday
9,123029856.79957506
45,14473678.14936
307,6471625.7664
497,546361526.2750299
522,0.0
1020,48596400.0
1057,53488152.88381505
1103,795644657.9182899
1116,1002963570.7283561
1140,1002963570.7283561
1153,0.0
1203,0.0
1216,0.0
2,2, 1, 2, 0, 8, 0.00,60.00,Tuesday
9,140524917.0140551
45,57894712.59744
307,12943251.5328
497,372845208.22416236
522,0.0
1020,16198800.0
1057,53488152.88381505
1103,612647348.3201028
1116,772299426.6498091
1140,772299426.6498091
1153,0.0
1203,0.0
1216,0.0
2,2, 1, 2, 0, 9, 0.00,60.00,Tuesday
9,220875624.55981497
45,144736781.4936
307,22650690.1824
497,286344936.24162688
522,0.0
1020,0.0
1057,53488152.88381505
1103,521432956.95797505
1116,657301850.8890543
1140,657301850.8890543
1153,0.0
1203,0.0
1216,0.0
2,2, 1, 2, 0,10, 0.00,60.00,Tuesday
9,343136675.5210949
45,260526206.68848003
307,29122315.948799999
497,183312665.1118462
522,0.0
1020,0.0
1057,53488152.88381505
1103,410282323.28895989
1116,517135105.12441667
1140,517135105.12441667
1153,0.0
1203,0.0
1216,0.0
2,2, 1, 2, 0,11, 0.00,60.00,Tuesday
9,343136675.5210949
45,260526206.68848003
307,29122315.948799999
497,141448929.933111
522,0.0
1020,0.0
1057,53488152.88381505
1103,356311360.014489
1116,449098967.29301276
1140,449098967.29301276
1153,0.0
1203,0.0
1216,0.0
2,2, 1, 2, 0,12, 0.00,60.00,Tuesday
9,343136675.5210949
45,260526206.68848003
307,29122315.948799999
497,101453827.75206405
522,0.0
1020,0.0
1057,53488152.88381505
1103,310119425.83064368
1116,390882613.72998288
1140,390882613.72998288
1153,0.0
1203,0.0
1216,0.0
2,2, 1, 2, 0,13, 0.00,60.00,Tuesday
9,343136675.5210949
45,260526206.68848003
307,29122315.948799999
497,84076807.40938056
522,103061.78622146326
1020,0.0
1057,53488152.88381505
1103,292697873.94834718
1116,368919076.73009726
1140,368919076.73009726
1153,0.0
1203,0.0
1216,0.0
2,2, 1, 2, 0,14, 0.00,60.00,Tuesday
9,343136675.5210949
45,260526206.68848003
307,29122315.948799999
497,81292885.53192817
522,441261.2039293125
1020,0.0
1057,53488152.88381505
1103,303287275.0478983
1116,382262158.2550631
1140,382262158.2550631
1153,0.0
1203,0.0
1216,0.0
2,2, 1, 2, 0,15, 0.00,60.00,Tuesday
9,343136675.5210949
45,260526206.68848003
307,29122315.948799999
497,82911007.26778464
522,724676.0050318102
1020,0.0
1057,53488152.88381505
1103,319131029.4269921
1116,402230304.0539588
1140,402230304.0539588
1153,0.0
1203,0.0
1216,0.0
2,2, 1, 2, 0,16, 0.00,60.00,Tuesday
9,343136675.5210949
45,260526206.68848003
307,29122315.948799999
497,66846026.357979018
522,2474695.118474358
1020,0.0
1057,53488152.88381505
1103,295211704.4014832
1116,372067015.3722784
1140,372067015.3722784
1153,0.0
1203,0.0
1216,0.0
2,2, 1, 2, 0,17, 0.00,60.00,Tuesday
9,375534275.5210949
45,260526206.68848003
307,29122315.948799999
497,66267327.40512046
522,2710120.0293199268
1020,32397600.0
1057,53488152.88381505
1103,287642311.6735064
1116,362520035.8549365
1140,362520035.8549365
1153,0.0
1203,0.0
1216,0.0
2,2, 1, 2, 0,18, 0.00,60.00,Tuesday
9,391733075.5210949
45,260526206.68848003
307,29122315.948799999
497,83998308.2531442
522,1278510.7581369046
1020,48596400.0
1057,53488152.88381505
1103,316346927.4657659
1116,398707577.5476298
1140,398707577.5476298
1153,0.0
1203,0.0
1216,0.0
2,2, 1, 2, 0,19, 0.00,60.00,Tuesday
9,301655193.7417351
45,173684137.79232
307,25886503.0656
497,103755035.09952496
522,0.0
1020,48596400.0
1057,53488152.88381505
1103,334664915.98509946
1116,421838269.0673733
1140,421838269.0673733
1153,0.0
1203,0.0
1216,0.0
2,2, 1, 2, 0,20, 0.00,60.00,Tuesday
9,301655193.7417351
45,173684137.79232
307,25886503.0656
497,119509299.03130886
522,0.0
1020,48596400.0
1057,53488152.88381505
1103,339655952.35059848
1116,428133666.0854727
1140,428133666.0854727
1153,0.0
1203,0.0
1216,0.0
2,2, 1, 2, 0,21, 0.00,60.00,Tuesday
9,269472024.559815
45,144736781.4936
307,22650690.1824
497,127132264.89502377
522,0.0
1020,48596400.0
1057,53488152.88381505
1103,339739339.31954887
1116,428247951.52074709
1140,428247951.52074709
1153,0.0
1203,0.0
1216,0.0
2,2, 1, 2, 0,22, 0.00,60.00,Tuesday
9,119434364.13024001
45,57894712.59744
307,12943251.5328
497,0.0
522,0.0
1020,48596400.0
1057,0.0
1103,0.0
1116,0.0
1140,0.0
1153,0.0
1203,0.0
1216,0.0
2,2, 1, 2, 0,23, 0.00,60.00,Tuesday
9,70199725.89945598
45,14473678.14936
307,6471625.7664
497,17476153.771950518
522,0.0
1020,48596400.0
1057,658021.983695979
1103,16929253.459871934
1116,21321803.44494676
1140,21321803.44494676
1153,0.0
1203,0.0
1216,0.0
2,2, 1, 2, 0,24, 0.00,60.00,Tuesday
9,72212932.1146434
45,14473678.14936
307,6471625.7664
497,69835684.90912733
522,0.0
1020,48596400.0
1057,2671228.1988834056
1103,67553598.74306397
1116,85361197.36887966
1140,85361197.36887966
1153,0.0
1203,0.0
1216,0.0
2,3, 1, 3, 0, 1, 0.00,60.00,Wednesday
9,73810098.36921382
45,14473678.14936
307,6471625.7664
497,111216972.93318084
522,0.0
1020,48596400.0
1057,4268394.453453824
1103,107664580.8175027
1116,135810876.01457078
1140,135810876.01457078
1153,0.0
1203,0.0
1216,0.0
2,3, 1, 3, 0, 2, 0.00,60.00,Wednesday
9,74085550.45184347
45,14473678.14936
307,6471625.7664
497,118251141.50547235
522,0.0
1020,48596400.0
1057,4543846.536083464
1103,114471309.54008813
1116,144457020.93549884
1140,144457020.93549884
1153,0.0
1203,0.0
1216,0.0
2,3, 1, 3, 0, 3, 0.00,60.00,Wednesday
9,74938048.43459524
45,14473678.14936
307,6471625.7664
497,140430802.5712301
522,0.0
1020,48596400.0
1057,5396344.518835243
1103,136161569.2809379
1116,171723289.71467779
1140,171723289.71467779
1153,0.0
1203,0.0
1216,0.0
2,3, 1, 3, 0, 4, 0.00,60.00,Wednesday
9,74851174.13351035
45,14473678.14936
307,6471625.7664
497,138064835.99038566
522,0.0
1020,48596400.0
1057,5309470.2177503569
1103,133777361.84695493
1116,168797702.06825019
1140,168797702.06825019
1153,0.0
1203,0.0
1216,0.0
2,3, 1, 3, 0, 5, 0.00,60.00,Wednesday
9,76377823.18907261
45,14473678.14936
307,6471625.7664
497,177669281.8811822
522,0.0
1020,48596400.0
1057,6836119.273312625
1103,172512531.52012945
1116,217540193.4103073
1140,217540193.4103073
1153,0.0
1203,0.0
1216,0.0
2,3, 1, 3, 0, 6, 0.00,60.00,Wednesday
9,76721965.22263636
45,14473678.14936
307,6471625.7664
497,186410034.03272403
522,0.0
1020,48596400.0
1057,7180261.306876362
1103,181026619.23136387
1116,228391210.09681914
1140,228391210.09681914
1153,0.0
1203,0.0
1216,0.0
2,3, 1, 3, 0, 7, 0.00,60.00,Wednesday
9,123029856.79957506
45,14473678.14936
307,6471625.7664
497,530911868.4010668
522,0.0
1020,48596400.0
1057,53488152.88381505
1103,808076205.7000465
1116,1018599611.9931719
1140,1018599611.9931719
1153,0.0
1203,0.0
1216,0.0
2,3, 1, 3, 0, 8, 0.00,60.00,Wednesday
9,140524917.0140551
45,57894712.59744
307,12943251.5328
497,370038806.9948447
522,0.0
1020,16198800.0
1057,53488152.88381505
1103,646455906.0880841
1116,814926843.2419268
1140,814926843.2419268
1153,0.0
1203,0.0
1216,0.0
2,3, 1, 3, 0, 9, 0.00,60.00,Wednesday
9,220875624.55981497
45,144736781.4936
307,22650690.1824
497,299754526.44063046
522,0.0
1020,0.0
1057,53488152.88381505
1103,584827935.5022715
1116,737235443.9139757
1140,737235443.9139757
1153,0.0
1203,0.0
1216,0.0
2,3, 1, 3, 0,10, 0.00,60.00,Wednesday
9,343136675.5210949
45,260526206.68848003
307,29122315.948799999
497,213831041.44836567
522,0.0
1020,0.0
1057,53488152.88381505
1103,505084487.352885
1116,636673567.1018418
1140,636673567.1018418
1153,0.0
1203,0.0
1216,0.0
2,3, 1, 3, 0,11, 0.00,60.00,Wednesday
9,343136675.5210949
45,260526206.68848003
307,29122315.948799999
497,181618615.5634105
522,0.0
1020,0.0
1057,53488152.88381505
1103,468916473.9102148
1116,591093106.0320691
1140,591093106.0320691
1153,0.0
1203,0.0
1216,0.0
2,3, 1, 3, 0,12, 0.00,60.00,Wednesday
9,343136675.5210949
45,260526206.68848003
307,29122315.948799999
497,144158709.12394036
522,0.0
1020,0.0
1057,53488152.88381505
1103,423929986.48605719
1116,534385022.0774462
1140,534385022.0774462
1153,0.0
1203,0.0
1216,0.0
2,3, 1, 3, 0,13, 0.00,60.00,Wednesday
9,343136675.5210949
45,260526206.68848003
307,29122315.948799999
497,125200119.95003575
522,0.0
1020,0.0
1057,53488152.88381505
1103,397641348.03769746
1116,501234865.1858693
1140,501234865.1858693
1153,0.0
1203,0.0
1216,0.0
2,3, 1, 3, 0,14, 0.00,60.00,Wednesday
9,343136675.5210949
45,260526206.68848003
307,29122315.948799999
497,112815046.25768075
522,0.0
1020,0.0
1057,53488152.88381505
1103,382422947.27231028
1116,482041331.14694276
1140,482041331.14694276
1153,0.0
1203,0.0
1216,0.0
2,3, 1, 3, 0,15, 0.00,60.00,Wednesday
9,343136675.5210949
45,260526206.68848003
307,29122315.948799999
497,105569720.97244798
522,0.0
1020,0.0
1057,53488152.88381505
1103,375178313.8765254
1116,472899610.92341789
1140,472899610.92341789
1153,0.0
1203,0.0
1216,0.0
2,3, 1, 3, 0,16, 0.00,60.00,Wednesday
9,343136675.5210949
45,260526206.68848003
307,29122315.948799999
497,93276055.98451981
522,434872.6328411023
1020,0.0
1057,53488152.88381505
1103,362451511.51789769
1116,456847470.5537203
1140,456847470.5537203
1153,0.0
1203,0.0
1216,0.0
2,3, 1, 3, 0,17, 0.00,60.00,Wednesday
9,375534275.5210949
45,260526206.68848003
307,29122315.948799999
497,98336662.80420718
522,126952.59910903187
1020,32397600.0
1057,53488152.88381505
1103,367862324.42990568
1116,463663592.1875543
1140,463663592.1875543
1153,0.0
1203,0.0
1216,0.0
2,3, 1, 3, 0,18, 0.00,60.00,Wednesday
9,391733075.5210949
45,260526206.68848003
307,29122315.948799999
497,112114349.33829245
522,0.0
1020,48596400.0
1057,53488152.88381505
1103,381751741.0525719
1116,481169673.44547918
1140,481169673.44547918
1153,0.0
1203,0.0
1216,0.0
2,3, 1, 3, 0,19, 0.00,60.00,Wednesday
9,301655193.7417351
45,173684137.79232
307,25886503.0656
497,137128554.20043848
522,0.0
1020,48596400.0
1057,53488152.88381505
1103,406734363.25873556
1116,512703842.8110511
1140,512703842.8110511
1153,0.0
1203,0.0
1216,0.0
2,3, 1, 3, 0,20, 0.00,60.00,Wednesday
9,301655193.7417351
45,173684137.79232
307,25886503.0656
497,162082523.14425612
522,0.0
1020,48596400.0
1057,53488152.88381505
1103,431736239.02124348
1116,544228618.8780955
1140,544228618.8780955
1153,0.0
1203,0.0
1216,0.0
2,3, 1, 3, 0,21, 0.00,60.00,Wednesday
9,269472024.559815
45,144736781.4936
307,22650690.1824
497,176239284.94985328
522,0.0
1020,48596400.0
1057,53488152.88381505
1103,445973687.4414776
1116,562186582.9284858
1140,562186582.9284858
1153,0.0
1203,0.0
1216,0.0
2,3, 1, 3, 0,22, 0.00,60.00,Wednesday
9,119987630.1199065
45,57894712.59744
307,12943251.5328
497,14662772.417035263
522,0.0
1020,48596400.0
1057,553265.9896664838
1103,14282010.313275654
1116,18002874.157650144
1140,18002874.157650144
1153,0.0
1203,0.0
1216,0.0
2,3, 1, 3, 0,23, 0.00,60.00,Wednesday
9,73301772.8104185
45,14473678.14936
307,6471625.7664
497,98173655.0171443
522,0.0
1020,48596400.0
1057,3760068.894658499
1103,94948412.49761723
1116,119978123.35168281
1140,119978123.35168281
1153,0.0
1203,0.0
1216,0.0
2,3, 1, 3, 0,24, 0.00,60.00,Wednesday
9,75262460.2873461
45,14473678.14936
307,6471625.7664
497,148477243.8655215
522,0.0
1020,48596400.0
1057,5720756.371586097
1103,144128698.82607923
1116,181756953.83988736
1140,181756953.83988736
1153,0.0
1203,0.0
1216,0.0
2,4, 1, 4, 0, 1, 0.00,60.00,Thursday
9,76148522.94776327
45,14473678.14936
307,6471625.7664
497,171727699.11807049
522,0.0
1020,48596400.0
1057,6606819.032003267
1103,166396146.70111517
1116,210015685.01541797
1140,210015685.01541797
1153,0.0
1203,0.0
1216,0.0
2,4, 1, 4, 0, 2, 0.00,60.00,Thursday
9,76941142.39223638
45,14473678.14936
307,6471625.7664
497,191820884.21085013
522,0.0
1020,48596400.0
1057,7399438.476476399
1103,186645689.19004006
1116,235318748.22214035
1140,235318748.22214035
1153,0.0
1203,0.0
1216,0.0
2,4, 1, 4, 0, 3, 0.00,60.00,Thursday
9,77291125.0758988
45,14473678.14936
307,6471625.7664
497,201292261.30610115
522,0.0
1020,48596400.0
1057,7749421.160138798
1103,195340804.6025034
1116,246511984.78957249
1140,246511984.78957249
1153,0.0
1203,0.0
1216,0.0
2,4, 1, 4, 0, 4, 0.00,60.00,Thursday
9,78049643.64784405
45,14473678.14936
307,6471625.7664
497,220483307.85975585
522,0.0
1020,48596400.0
1057,8507939.73208405
1103,214858712.10114856
1116,270874320.76674857
1140,270874320.76674857
1153,0.0
1203,0.0
1216,0.0
2,4, 1, 4, 0, 5, 0.00,60.00,Thursday
9,78333687.02442864
45,14473678.14936
307,6471625.7664
497,228296996.54795597
522,0.0
1020,48596400.0
1057,8791983.108668633
1103,221849765.3569423
1116,279942188.0912357
1140,279942188.0912357
1153,0.0
1203,0.0
1216,0.0
2,4, 1, 4, 0, 6, 0.00,60.00,Thursday
9,78804590.3139445
45,14473678.14936
307,6471625.7664
497,240005930.45352007
522,0.0
1020,48596400.0
1057,9262886.3981845
1103,234177956.42970813
1116,295218225.83568546
1140,295218225.83568546
1153,0.0
1203,0.0
1216,0.0
2,4, 1, 4, 0, 7, 0.00,60.00,Thursday
9,123029856.79957506
45,14473678.14936
307,6471625.7664
497,535687530.34354797
522,0.0
1020,48596400.0
1057,53488152.88381505
1103,814696848.5846388
1116,1026915710.0163353
1140,1026915710.0163353
1153,0.0
1203,0.0
1216,0.0
2,4, 1, 4, 0, 8, 0.00,60.00,Thursday
9,140524917.0140551
45,57894712.59744
307,12943251.5328
497,376834868.7406926
522,0.0
1020,16198800.0
1057,53488152.88381505
1103,646688682.9213915
1116,815221630.5545549
1140,815221630.5545549
1153,0.0
1203,0.0
1216,0.0
2,4, 1, 4, 0, 9, 0.00,60.00,Thursday
9,220875624.55981497
45,144736781.4936
307,22650690.1824
497,293601183.58926036
522,0.0
1020,0.0
1057,53488152.88381505
1103,558703047.0865339
1116,704295197.7414913
1140,704295197.7414913
1153,0.0
1203,0.0
1216,0.0
2,4, 1, 4, 0,10, 0.00,60.00,Thursday
9,343136675.5210949
45,260526206.68848003
307,29122315.948799999
497,195420693.44771854
522,0.0
1020,0.0
1057,53488152.88381505
1103,453160907.029244
1116,571202202.3000513
1140,571202202.3000513
1153,0.0
1203,0.0
1216,0.0
2,4, 1, 4, 0,11, 0.00,60.00,Thursday
9,343136675.5210949
45,260526206.68848003
307,29122315.948799999
497,161547094.69050092
522,0.0
1020,0.0
1057,53488152.88381505
1103,416498235.6632387
1116,524993999.95791557
1140,524993999.95791557
1153,0.0
1203,0.0
1216,0.0
2,4, 1, 4, 0,12, 0.00,60.00,Thursday
9,343136675.5210949
45,260526206.68848003
307,29122315.948799999
497,124648255.92293054
522,0.0
1020,0.0
1057,53488152.88381505
1103,374929287.62991318
1116,472599790.80441847
1140,472599790.80441847
1153,0.0
1203,0.0
1216,0.0
2,4, 1, 4, 0,13, 0.00,60.00,Thursday
9,343136675.5210949
45,260526206.68848003
307,29122315.948799999
497,104213225.63402868
522,0.0
1020,0.0
1057,53488152.88381505
1103,347162197.7520866
1116,437587351.26110199
1140,437587351.26110199
1153,0.0
1203,0.0
1216,0.0
2,4, 1, 4, 0,14, 0.00,60.00,Thursday
9,343136675.5210949
45,260526206.68848003
307,29122315.948799999
497,91174742.44445302
522,64243.93521643651
1020,0.0
1057,53488152.88381505
1103,331225277.6746247
1116,417486799.55979409
1140,417486799.55979409
1153,0.0
1203,0.0
1216,0.0
2,4, 1, 4, 0,15, 0.00,60.00,Thursday
9,343136675.5210949
45,260526206.68848003
307,29122315.948799999
497,86529633.46472907
522,591482.2591812415
1020,0.0
1057,53488152.88381505
1103,330060147.2236184
1116,416010780.31666138
1140,416010780.31666138
1153,0.0
1203,0.0
1216,0.0
2,4, 1, 4, 0,16, 0.00,60.00,Thursday
9,343136675.5210949
45,260526206.68848003
307,29122315.948799999
497,77277414.07850768
522,1711860.9798085883
1020,0.0
1057,53488152.88381505
1103,322510173.7045895
1116,406486059.2065488
1140,406486059.2065488
1153,0.0
1203,0.0
1216,0.0
2,4, 1, 4, 0,17, 0.00,60.00,Thursday
9,375534275.5210949
45,260526206.68848003
307,29122315.948799999
497,91113552.07578863
522,684454.8647883276
1020,32397600.0
1057,53488152.88381505
1103,350624699.8475907
1116,441929305.9542448
1140,441929305.9542448
1153,0.0
1203,0.0
1216,0.0
2,4, 1, 4, 0,18, 0.00,60.00,Thursday
9,391733075.5210949
45,260526206.68848003
307,29122315.948799999
497,118253798.08102866
522,0.0
1020,48596400.0
1057,53488152.88381505
1103,396566307.46701017
1116,499849844.9313326
1140,499849844.9313326
1153,0.0
1203,0.0
1216,0.0
2,4, 1, 4, 0,19, 0.00,60.00,Thursday
9,301655193.7417351
45,173684137.79232
307,25886503.0656
497,155088546.5412764
522,0.0
1020,48596400.0
1057,53488152.88381505
1103,448189754.4791322
1116,564973419.8689418
1140,564973419.8689418
1153,0.0
1203,0.0
1216,0.0
2,4, 1, 4, 0,20, 0.00,60.00,Thursday
9,301655193.7417351
45,173684137.79232
307,25886503.0656
497,185289382.6603518
522,0.0
1020,48596400.0
1057,53488152.88381505
1103,484561215.4432117
1116,610832490.1512029
1140,610832490.1512029
1153,0.0
1203,0.0
1216,0.0
2,4, 1, 4, 0,21, 0.00,60.00,Thursday
9,269472024.559815
45,144736781.4936
307,22650690.1824
497,196891319.7757719
522,0.0
1020,48596400.0
1057,53488152.88381505
1103,491470029.4919062
1116,619549247.6934303
1140,619549247.6934303
1153,0.0
1203,0.0
1216,0.0
2,4, 1, 4, 0,22, 0.00,60.00,Thursday
9,120764195.11556053
45,57894712.59744
307,12943251.5328
497,35003159.619901757
522,0.0
1020,48596400.0
1057,1329830.985320516
1103,33981025.151580978
1116,42973712.86400534
1140,42973712.86400534
1153,0.0
1203,0.0
1216,0.0
2,4, 1, 4, 0,23, 0.00,60.00,Thursday
9,75551644.53560932
45,14473678.14936
307,6471625.7664
497,155933152.52629555
522,0.0
1020,48596400.0
1057,6009940.6198493209
1103,151020544.34800787
1116,190407724.25218267
1140,190407724.25218267
1153,0.0
1203,0.0
1216,0.0
2,4, 1, 4, 0,24, 0.00,60.00,Thursday
9,78078612.99779532
45,14473678.14936
307,6471625.7664
497,221561872.97698844
522,0.0
1020,48596400.0
1057,8536909.082035322
1103,215645677.9797889
1116,272255963.09535196
1140,272255963.09535196
1153,0.0
1203,0.0
1216,0.0
2,5, 1, 5, 0, 1, 0.00,60.00,Friday
9,79629614.38987385
45,14473678.14936
307,6471625.7664
497,260995926.29230625
522,0.0
1020,48596400.0
1057,10087910.47411385
1103,254020875.9540385
1116,320125543.4020636
1140,320125543.4020636
1153,0.0
1203,0.0
1216,0.0
2,5, 1, 5, 0, 2, 0.00,60.00,Friday
9,80001366.47379355
45,14473678.14936
307,6471625.7664
497,271203243.1755051
522,0.0
1020,48596400.0
1057,10459662.558033565
1103,264740992.97754965
1116,334189354.3766607
1140,334189354.3766607
1153,0.0
1203,0.0
1216,0.0
2,5, 1, 5, 0, 3, 0.00,60.00,Friday
9,80798259.02932909
45,14473678.14936
307,6471625.7664
497,291145881.60640439
522,0.0
1020,48596400.0
1057,11256555.113569098
1103,283809323.6993084
1116,357645302.0110878
1140,357645302.0110878
1153,0.0
1203,0.0
1216,0.0
2,5, 1, 5, 0, 4, 0.00,60.00,Friday
9,81888731.44794674
45,14473678.14936
307,6471625.7664
497,320028885.26238599
522,0.0
1020,48596400.0
1057,12347027.532186756
1103,313077545.10844227
1116,395173375.8351806
1140,395173375.8351806
1153,0.0
1203,0.0
1216,0.0
2,5, 1, 5, 0, 5, 0.00,60.00,Friday
9,84375466.37264495
45,14473678.14936
307,6471625.7664
497,383884508.68351367
522,0.0
1020,48596400.0
1057,14833762.456884949
1103,374819177.3059594
1116,472298833.61295738
1140,472298833.61295738
1153,0.0
1203,0.0
1216,0.0
2,5, 1, 5, 0, 6, 0.00,60.00,Friday
9,86398382.55617249
45,14473678.14936
307,6471625.7664
497,438364351.4061208
522,0.0
1020,48596400.0
1057,16856678.640412496
1103,428739801.4314931
1116,541136777.6612214
1140,541136777.6612214
1153,0.0
1203,0.0
1216,0.0
2,5, 1, 5, 0, 7, 0.00,60.00,Friday
9,123029856.79957506
45,14473678.14936
307,6471625.7664
497,703801834.390038
522,0.0
1020,48596400.0
1057,53488152.88381505
1103,1140080890.0639983
1116,1437072491.00664
1140,1437072491.00664
1153,0.0
1203,0.0
1216,0.0
2,5, 1, 5, 0, 8, 0.00,60.00,Friday
9,140524917.0140551
45,57894712.59744
307,12943251.5328
497,532829501.93457528
522,0.0
1020,16198800.0
1057,53488152.88381505
1103,958005487.8703718
1116,1207718060.4318825
1140,1207718060.4318825
1153,0.0
1203,0.0
1216,0.0
2,5, 1, 5, 0, 9, 0.00,60.00,Friday
9,220875624.55981497
45,144736781.4936
307,22650690.1824
497,431650759.23545107
522,0.0
1020,0.0
1057,53488152.88381505
1103,850703558.7578147
1116,1072465162.5033807
1140,1072465162.5033807
1153,0.0
1203,0.0
1216,0.0
2,5, 1, 5, 0,10, 0.00,60.00,Friday
9,343136675.5210949
45,260526206.68848003
307,29122315.948799999
497,308553965.8924544
522,0.0
1020,0.0
1057,53488152.88381505
1103,710223392.3802638
1116,895334599.5734704
1140,895334599.5734704
1153,0.0
1203,0.0
1216,0.0
2,5, 1, 5, 0,11, 0.00,60.00,Friday
9,343136675.5210949
45,260526206.68848003
307,29122315.948799999
497,240574445.62156899
522,0.0
1020,0.0
1057,53488152.88381505
1103,611727209.54963
1116,771176661.2782072
1140,771176661.2782072
1153,0.0
1203,0.0
1216,0.0
2,5, 1, 5, 0,12, 0.00,60.00,Friday
9,343136675.5210949
45,260526206.68848003
307,29122315.948799999
497,179469325.87365193
522,0.0
1020,0.0
1057,53488152.88381505
1103,525106204.46192386
1116,661980340.9172605
1140,661980340.9172605
1153,0.0
1203,0.0
1216,0.0
2,5, 1, 5, 0,13, 0.00,60.00,Friday
9,343136675.5210949
45,260526206.68848003
307,29122315.948799999
497,146200568.39879338
522,0.0
1020,0.0
1057,53488152.88381505
1103,474209880.1449571
1116,597814975.4940921
1140,597814975.4940921
1153,0.0
1203,0.0
1216,0.0
2,5, 1, 5, 0,14, 0.00,60.00,Friday
9,343136675.5210949
45,260526206.68848003
307,29122315.948799999
497,120646683.687428
522,0.0
1020,0.0
1057,53488152.88381505
1103,433829401.7484612
1116,546903854.6322032
1140,546903854.6322032
1153,0.0
1203,0.0
1216,0.0
2,5, 1, 5, 0,15, 0.00,60.00,Friday
9,343136675.5210949