Program Version,EnergyPlus, Version 9.2.0-921312fa1d, YMD=2020.12.22 17:59
1,5,Environment Title[],Latitude[deg],Longitude[deg],Time Zone[],Elevation[m]
2,8,Day of Simulation[],Month[],Day of Month[],DST Indicator[1=yes 0=no],Hour[],StartMinute[],EndMinute[],DayType
3,5,Cumulative Day of Simulation[],Month[],Day of Month[],DST Indicator[1=yes 0=no],DayType  ! When Daily Report Variables Requested
4,2,Cumulative Days of Simulation[],Month[]  ! When Monthly Report Variables Requested
5,1,Cumulative Days of Simulation[] ! When Run Period Report Variables Requested
6,1,Calendar Year of Simulation[] ! When Annual Report Variables Requested
342,1,BACK_SPACE,Zone Thermostat Heating Setpoint Temperature [C] !Hourly
343,1,BACK_SPACE,Zone Thermostat Cooling Setpoint Temperature [C] !Hourly
382,1,CORE_RETAIL,Zone Thermostat Heating Setpoint Temperature [C] !Hourly
383,1,CORE_RETAIL,Zone Thermostat Cooling Setpoint Temperature [C] !Hourly
422,1,FRONT_ENTRY,Zone Thermostat Heating Setpoint Temperature [C] !Hourly
423,1,FRONT_ENTRY,Zone Thermostat Cooling Setpoint Temperature [C] !Hourly
462,1,FRONT_RETAIL,Zone Thermostat Heating Setpoint Temperature [C] !Hourly
463,1,FRONT_RETAIL,Zone Thermostat Cooling Setpoint Temperature [C] !Hourly
502,1,POINT_OF_SALE,Zone Thermostat Heating Setpoint Temperature [C] !Hourly
503,1,POINT_OF_SALE,Zone Thermostat Cooling Setpoint Temperature [C] !Hourly
9,1,Electricity:Facility [J] !Hourly
695,1,Heating:Electricity [J] !Hourly
798,1,Cooling:Electricity [J] !Hourly
45,1,InteriorLights:Electricity [J] !Hourly
760,1,ExteriorLights:Electricity [J] !Hourly
182,1,InteriorEquipment:Electricity [J] !Hourly
629,1,Fans:Electricity [J] !Hourly
709,1,Gas:Facility [J] !Hourly
733,1,Heating:Gas [J] !Hourly
294,1,Heating:EnergyTransfer [J] !Hourly
319,1,Cooling:EnergyTransfer [J] !Hourly
682,1,HeatingCoils:EnergyTransfer [J] !Hourly
785,1,CoolingCoils:EnergyTransfer [J] !Hourly
1530,1,PSZ-AC:1,Air System Total Heating Energy [J] !Hourly
1531,1,PSZ-AC:1,Air System Total Cooling Energy [J] !Hourly
1532,1,PSZ-AC:2,Air System Total Heating Energy [J] !Hourly
1533,1,PSZ-AC:2,Air System Total Cooling Energy [J] !Hourly
1534,1,PSZ-AC:3,Air System Total Heating Energy [J] !Hourly
1535,1,PSZ-AC:3,Air System Total Cooling Energy [J] !Hourly
1536,1,PSZ-AC:4,Air System Total Heating Energy [J] !Hourly
1537,1,PSZ-AC:4,Air System Total Cooling Energy [J] !Hourly
End of Data Dictionary
1,RUNPERIOD 1,  41.98, -87.92,  -6.00, 201.00
2,1, 1, 1, 0, 1, 0.00,60.00,Holiday
342,15.6
343,30.0
382,15.6
383,30.0
422,15.6
423,90.0
462,15.6
463,30.0
502,15.6
503,30.0
1530,16319429.115633658
1531,0.0
1532,0.0
1533,0.0
1534,7311560.853535851
1535,0.0
1536,8293291.244090131
1537,0.0
9,45102734.49550967
45,6876431.089379999
182,6462622.566179999
294,32483978.186986038
319,0.0
629,1266261.2105132514
682,31436560.875174855
695,739819.6294364128
709,38370926.55717306
733,38370926.55717306
760,29757600.0
785,0.0
798,0.0
2,1, 1, 1, 0, 2, 0.00,60.00,Holiday
342,15.6
343,30.0
382,15.6
383,30.0
422,15.6
423,90.0
462,15.6
463,30.0
502,15.6
503,30.0
1530,17669709.349539333
1531,0.0
1532,0.0
1533,0.0
1534,11653871.10207102
1535,0.0
1536,12738788.376582183
1537,0.0
9,45865333.97729023
45,6876431.089379999
182,6462622.566179999
294,42997292.42455804
319,0.0
629,1667929.808305433
682,41533910.77630377
695,1100750.5134247938
709,50541450.32859872
733,50541450.32859872
760,29757600.0
785,0.0
798,0.0
2,1, 1, 1, 0, 3, 0.00,60.00,Holiday
342,15.6
343,30.0
382,15.6
383,30.0
422,15.6
423,90.0
462,15.6
463,30.0
502,15.6
503,30.0
1530,24744463.311970887
1531,0.0
1532,0.0
1533,0.0
1534,11252008.674416082
1535,0.0
1536,12255510.152305302
1537,0.0
9,46163402.42953964
45,6876431.089379999
182,6462622.566179999
294,49016713.90417579
319,0.0
629,1891557.8703210774
682,47574336.41502193
695,1175190.903658568
709,57998931.889204207
733,57998931.889204207
760,29757600.0
785,0.0
798,0.0
2,1, 1, 1, 0, 4, 0.00,60.00,Holiday
342,15.6
343,30.0
382,15.6
383,30.0
422,15.6
423,90.0
462,15.6
463,30.0
502,15.6
503,30.0
1530,19405721.79172101
1531,0.0
1532,0.0
1533,0.0
1534,12860869.445388247
1535,0.0
1536,13902693.042046255
1537,0.0
9,46180192.07464109
45,6876431.089379999
182,6462622.566179999
294,47215399.25514288
319,0.0
629,1827684.9390338367
682,45636174.06316081
695,1255853.4800472595
709,55475400.72889193
733,55475400.72889193
760,29757600.0
785,0.0
798,0.0
2,1, 1, 1, 0, 5, 0.00,60.00,Holiday
342,15.6
343,30.0
382,15.6
383,30.0
422,15.6
423,90.0
462,15.6
463,30.0
502,15.6
503,30.0
1530,27268686.800298636
1531,0.0
1532,0.0
1533,0.0
1534,12361340.572217623
1535,0.0
1536,13350084.771187596
1537,0.0
9,46504266.00997199
45,6876431.089379999
182,6462622.566179999
294,53800436.42396906
319,0.0
629,2071602.8089578294
682,52283240.12319183
695,1336009.545454162
709,63684038.22217209
733,63684038.22217209
760,29757600.0
785,0.0
798,0.0
2,1, 1, 1, 0, 6, 0.00,60.00,Holiday
342,15.6
343,30.0
382,15.6
383,30.0
422,15.6
423,90.0
462,15.6
463,30.0
502,15.6
503,30.0
1530,21285013.821680614
1531,0.0
1532,19180200.664418766
1533,0.0
1534,13891923.574412277
1535,0.0
1536,14865398.520304703
1537,0.0
9,47718327.22229505
45,6876431.089379999
182,6462622.566179999
294,70234472.65823339
319,0.0
629,3212339.6794585029
682,67458252.03162642
695,1409333.8872765455
709,83136290.83029431
733,83136290.83029431
760,29757600.0
785,0.0
798,0.0
2,1, 1, 1, 0, 7, 0.00,60.00,Holiday
342,15.6
343,30.0
382,15.6
383,30.0
422,15.6
423,90.0
462,15.6
463,30.0
502,15.6
503,30.0
1530,29737040.597225589
1531,0.0
1532,27426331.528617994
1533,0.0
1534,13199551.674174574
1535,0.0
1536,14080206.059667577
1537,0.0
9,48564276.02248787
45,6876431.089379999
182,6462622.566179999
294,85062114.92476133
319,0.0
629,3986830.809634465
682,81975811.85033703
695,1480791.557293412
709,101441354.44601977
733,101441354.44601977
760,29757600.0
785,0.0
798,0.0
2,1, 1, 1, 0, 8, 0.00,60.00,Holiday
342,15.6
343,30.0
382,15.6
383,30.0
422,15.6
423,90.0
462,15.6
463,30.0
502,15.6
503,30.0
1530,22623427.4471545
1531,0.0
1532,27240131.11808732
1533,0.0
1534,13927735.928522218
1535,0.0
1536,14953064.384438962
1537,0.0
9,28440624.10542924
45,6876431.089379999
182,6462622.566179999
294,79717428.2394109
319,0.0
629,3790559.0191186449
682,76384332.53282744
695,1391811.4307505943
709,94557359.82635707
733,94557359.82635707
760,9919200.0
785,0.0
798,0.0
2,1, 1, 1, 0, 9, 0.00,60.00,Holiday
342,21.0
343,24.0
382,21.0
383,24.0
422,21.0
423,90.0
462,21.0
463,24.0
502,21.0
503,24.0
1530,135485262.7629572
1531,0.0
1532,567545858.5573676
1533,0.0
1534,66628773.19120721
1535,0.0
1536,68870480.02092703
1537,0.0
9,77318969.48589719
45,13752862.178759998
182,12925245.132359999
294,440336200.6874716
319,0.0
629,43817787.85843718
682,801574382.2333527
695,6823074.316340021
709,1010611962.0516695
733,1010611962.0516695
760,0.0
785,0.0
798,0.0
2,1, 1, 1, 0,10, 0.00,60.00,Holiday
342,21.0
343,24.0
382,21.0
383,24.0
422,21.0
423,90.0
462,21.0
463,24.0
502,21.0
503,24.0
1530,103158836.88409785
1531,0.0
1532,460047933.9458139
1533,0.0
1534,47511921.09844918
1535,0.0
1536,50228201.66245596
1537,0.0
9,74420847.02640446
45,13752862.178759998
182,12925245.132359999
294,282016198.3211837
319,0.0
629,43817787.85843718
682,621092778.8322178
695,3924951.8568472869
709,785187164.5729644
733,785187164.5729644
760,0.0
785,0.0
798,0.0
2,1, 1, 1, 0,11, 0.00,60.00,Holiday
342,21.0
343,24.0
382,21.0
383,24.0
422,21.0
423,90.0
462,21.0
463,24.0
502,21.0
503,24.0
1530,88751686.6936504
1531,0.0
1532,398155383.3078264
1533,0.0
1534,35754818.0830498
1535,0.0
1536,40130715.02525438
1537,0.0
9,127177417.37591107
45,55011448.71503999
182,25850490.264719998
294,207846981.3151289
319,0.0
629,43817787.85843718
682,521511227.0320471
695,2497690.537713869
709,660510565.8742963
733,660510565.8742963
760,0.0
785,0.0
798,0.0
2,1, 1, 1, 0,12, 0.00,60.00,Holiday
342,21.0
343,24.0
382,21.0
383,24.0
422,21.0
423,90.0
462,21.0
463,24.0
502,21.0
503,24.0
1530,80724520.42359913
1531,0.0
1532,361568481.2187424
1533,0.0
1534,31224263.10583512
1535,0.0
1536,35479599.0482039
1537,0.0
9,126676399.60387647
45,55011448.71503999
182,25850490.264719998
294,176134978.90443529
319,0.0
629,43817787.85843718
682,467214469.9466166
695,1996672.7656792955
709,592093234.6143117
733,592093234.6143117
760,0.0
785,0.0
798,0.0
2,1, 1, 1, 0,13, 0.00,60.00,Holiday
342,21.0
343,24.0
382,21.0
383,24.0
422,21.0
423,90.0
462,21.0
463,24.0
502,21.0
503,24.0
1530,71817814.86984098
1531,0.0
1532,313411435.75708809
1533,0.0
1534,28002983.056059153
1535,0.0
1536,33355013.56898263
1537,0.0
9,163182168.67763595
45,82517173.07255998
182,34467320.35296
294,132072437.72408635
319,0.0
629,43817787.85843718
682,405188068.0302051
695,2379887.3936787096
709,512537718.8869501
733,512537718.8869501
760,0.0
785,0.0
798,0.0
2,1, 1, 1, 0,14, 0.00,60.00,Holiday
342,21.0
343,24.0
382,21.0
383,24.0
422,21.0
423,90.0
462,21.0
463,24.0
502,21.0
503,24.0
1530,66305466.69773214
1531,0.0
1532,288378767.95063546
1533,0.0
1534,27201828.48866829
1535,0.0
1536,32625109.068326136
1537,0.0
9,163452402.4121837
45,82517173.07255998
182,34467320.35296
294,114930430.03294945
319,0.0
629,43817787.85843718
682,373382226.71814396
695,2650121.1282265034
709,471640295.9823283
733,471640295.9823283
760,0.0
785,0.0
798,0.0
2,1, 1, 1, 0,15, 0.00,60.00,Holiday
342,21.0
343,24.0
382,21.0
383,24.0
422,21.0
423,90.0
462,21.0
463,24.0
502,21.0
503,24.0
1530,62954711.37370996
1531,0.0
1532,274673154.7451807
1533,0.0
1534,26400784.978264549
1535,0.0
1536,31800852.46411343
1537,0.0
9,163522231.23479695
45,82517173.07255998
182,34467320.35296
294,102401869.67812218
319,0.0
629,43817787.85843718
682,354770386.89665928
695,2719949.9508397367
709,447848927.702672
733,447848927.702672
760,0.0
785,0.0
798,0.0
2,1, 1, 1, 0,16, 0.00,60.00,Holiday
342,21.0
343,24.0
382,21.0
383,24.0
422,21.0
423,90.0
462,21.0
463,24.0
502,21.0
503,24.0
1530,61013818.922990579
1531,0.0
1532,268591969.50705286
1533,0.0
1534,26831549.869966356
1535,0.0
1536,32268105.547133276
1537,0.0
9,163737861.01593108
45,82517173.07255998
182,34467320.35296
294,95412146.56241465
319,0.0
629,43817787.85843718
682,347861956.9636766
695,2935579.731973889
709,438748943.2767529
733,438748943.2767529
760,0.0
785,0.0
798,0.0
2,1, 1, 1, 0,17, 0.00,60.00,Holiday
342,21.0
343,24.0
382,21.0
383,24.0
422,21.0
423,90.0
462,21.0
463,24.0
502,21.0
503,24.0
1530,59540626.9251385
1531,0.0
1532,264433982.77153696
1533,0.0
1534,27324672.297027384
1535,0.0
1536,32849729.09862314
1537,0.0
9,183795684.41634549
45,82517173.07255998
182,34467320.35296
294,91038126.90881713
319,0.0
629,43817787.85843718
682,343524947.6092664
695,3155003.132388261
709,432920133.5275964
733,432920133.5275964
760,19838400.0
785,0.0
798,0.0
2,1, 1, 1, 0,18, 0.00,60.00,Holiday
342,21.0
343,24.0
382,21.0
383,24.0
422,21.0
423,90.0
462,21.0
463,24.0
502,21.0
503,24.0
1530,74440807.82567734
1531,0.0
1532,316352559.6336695
1533,0.0
1534,36370814.4106362
1535,0.0
1536,40771630.368177268
1537,0.0
9,156289647.10200585
45,55011448.71503999
182,25850490.264719998
294,168854569.2812637
319,0.0
629,43817787.85843718
682,426009065.8865222
695,1852320.263808645
709,539317691.9106001
733,539317691.9106001
760,29757600.0
785,0.0
798,0.0
2,1, 1, 1, 0,19, 0.00,60.00,Holiday
342,21.0
343,24.0
382,21.0
383,24.0
422,21.0
423,90.0
462,21.0
463,24.0
502,21.0
503,24.0
1530,78302832.97506222
1531,0.0
1532,339202017.04323557
1533,0.0
1534,40456336.933389607
1535,0.0
1536,43585332.26956624
1537,0.0
9,120380148.18442956
45,27505724.357519997
182,17233660.17648
294,195413071.50495024
319,0.0
629,43817787.85843718
682,459832828.39779838
695,2065375.7919923573
709,582063430.0436183
733,582063430.0436183
760,29757600.0
785,0.0
798,0.0
2,1, 1, 1, 0,20, 0.00,60.00,Holiday
342,15.6
343,30.0
382,15.6
383,30.0
422,15.6
423,90.0
462,15.6
463,30.0
502,15.6
503,30.0
1530,0.0
1531,0.0
1532,0.0
1533,0.0
1534,0.0
1535,0.0
1536,0.0
1537,0.0
9,43096653.65556
45,6876431.089379999
182,6462622.566179999
294,0.0
319,0.0
629,0.0
682,0.0
695,0.0
709,0.0
733,0.0
760,29757600.0
785,0.0
798,0.0
2,1, 1, 1, 0,21, 0.00,60.00,Holiday
342,15.6
343,30.0
382,15.6
383,30.0
422,15.6
423,90.0
462,15.6
463,30.0
502,15.6
503,30.0
1530,0.0
1531,0.0
1532,0.0
1533,0.0
1534,0.0
1535,0.0
1536,0.0
1537,0.0
9,43096653.65556
45,6876431.089379999
182,6462622.566179999
294,0.0
319,0.0
629,0.0
682,0.0
695,0.0
709,0.0
733,0.0
760,29757600.0
785,0.0
798,0.0
2,1, 1, 1, 0,22, 0.00,60.00,Holiday
342,15.6
343,30.0
382,15.6
383,30.0
422,15.6
423,90.0
462,15.6
463,30.0
502,15.6
503,30.0
1530,0.0
1531,0.0
1532,0.0
1533,0.0
1534,0.0
1535,0.0
1536,0.0
1537,0.0
9,43096653.65556
45,6876431.089379999
182,6462622.566179999
294,0.0
319,0.0
629,0.0
682,0.0
695,0.0
709,0.0
733,0.0
760,29757600.0
785,0.0
798,0.0
2,1, 1, 1, 0,23, 0.00,60.00,Holiday
342,15.6
343,30.0
382,15.6
383,30.0
422,15.6
423,90.0
462,15.6
463,30.0
502,15.6
503,30.0
1530,0.0
1531,0.0
1532,0.0
1533,0.0
1534,0.0
1535,0.0
1536,1099952.0487506984
1537,0.0
9,43228546.45539661
45,6876431.089379999
182,6462622.566179999
294,1172963.7697452959
319,0.0
629,69161.35765624006
682,1119336.295269149
695,62731.44218036633
709,1320756.0663609782
733,1320756.0663609782
760,29757600.0
785,0.0
798,0.0
2,1, 1, 1, 0,24, 0.00,60.00,Holiday
342,15.6
343,30.0
382,15.6
383,30.0
422,15.6
423,90.0
462,15.6
463,30.0
502,15.6
503,30.0
1530,0.0
1531,0.0
1532,0.0
1533,0.0
1534,2258507.8149078178
1535,0.0
1536,3935548.9069414909
1537,0.0
9,43656016.35852344
45,6876431.089379999
182,6462622.566179999
294,6474522.307532144
319,0.0
629,283759.61304217189
682,6224621.441719924
695,275603.08992127879
709,7436272.939748306
733,7436272.939748306
760,29757600.0
785,0.0
798,0.0
2,2, 1, 2, 0, 1, 0.00,60.00,Tuesday
342,15.600000000000004
343,30.00000000000001
382,15.600000000000004
383,30.00000000000001
422,15.600000000000004
423,90.00000000000002
462,15.600000000000004
463,30.00000000000001
502,15.600000000000004
503,30.00000000000001
1530,9977465.61247758
1531,0.0
1532,0.0
1533,0.0
1534,3777654.924442785
1535,0.0
1536,5210124.153293254
1537,0.0
9,46490668.13382238
45,6876431.089379999
182,8616830.08824
294,19332565.03365767
319,0.0
629,767016.5442103034
682,18709739.80098713
695,472790.4119920754
709,22796186.736243816
733,22796186.736243816
760,29757600.0
785,0.0
798,0.0
2,2, 1, 2, 0, 2, 0.00,60.00,Tuesday
342,15.599999999999996
343,30.0
382,15.599999999999996
383,30.0
422,15.599999999999996
423,90.0
462,15.599999999999996
463,30.0
502,15.599999999999996
503,30.0
1530,8412900.6712818
1531,0.0
1532,0.0
1533,0.0
1534,5293629.689073521
1535,0.0
1536,6668244.259288337
1537,0.0
9,46670104.27919462
45,6876431.089379999
182,8616830.08824
294,20918418.08520231
319,0.0
629,828299.4314817052
682,20176140.101246489
695,590943.6700929182
709,24481495.53894196
733,24481495.53894196
760,29757600.0
785,0.0
798,0.0
2,2, 1, 2, 0, 3, 0.00,60.00,Tuesday
342,15.600000000000002
343,30.00000000000001
382,15.600000000000002
383,30.00000000000001
422,15.600000000000002
423,90.00000000000002
462,15.600000000000002
463,30.00000000000001
502,15.600000000000002
503,30.00000000000001
1530,12318427.839577716
1531,0.0
1532,0.0
1533,0.0
1534,5279321.142386494
1535,0.0
1536,6531925.220029397
1537,0.0
9,46876493.07252847
45,6876431.089379999
182,8616830.08824
294,24655648.533823573
319,0.0
629,966432.5465649632
682,23861162.246763886
695,659199.3483435016
709,29002453.623025478
733,29002453.623025478
760,29757600.0
785,0.0
798,0.0
2,2, 1, 2, 0, 4, 0.00,60.00,Tuesday
342,15.599999999999996
343,30.0
382,15.599999999999996
383,30.0
422,15.599999999999996
423,90.0
462,15.599999999999996
463,30.0
502,15.599999999999996
503,30.0
1530,10384737.766349277
1531,0.0
1532,0.0
1533,0.0
1534,6325375.019439762
1535,0.0
1536,7687822.802454181
1537,0.0
9,46944763.557853978
45,6876431.089379999
182,8616830.08824
294,25056774.515815114
319,0.0
629,984140.0675383727
682,24162279.076392138
695,709762.3126956085
709,29315645.95462066
733,29315645.95462066
760,29757600.0
785,0.0
798,0.0
2,2, 1, 2, 0, 5, 0.00,60.00,Tuesday
342,15.600000000000002
343,30.00000000000001
382,15.600000000000002
383,30.00000000000001
422,15.600000000000002
423,90.00000000000002
462,15.600000000000002
463,30.00000000000001
502,15.600000000000002
503,30.00000000000001
1530,13588814.709520299
1531,0.0
1532,0.0
1533,0.0
1534,5483403.682825245
1535,0.0
1536,6735930.15243292
1537,0.0
9,46976222.82553306
45,6876431.089379999
182,8616830.08824
294,26368337.114489177
319,0.0
629,1030596.3828733168
682,25511038.66993676
695,694765.2650397518
709,31020341.75612126
733,31020341.75612126
760,29757600.0
785,0.0
798,0.0
2,2, 1, 2, 0, 6, 0.00,60.00,Tuesday
342,15.599999999999996
343,30.0
382,15.599999999999996
383,30.0
422,15.599999999999996
423,90.0
462,15.599999999999996
463,30.0
502,15.599999999999996
503,30.0
1530,10085969.558974345
1531,0.0
1532,0.0
1533,0.0
1534,6005088.351808503
1535,0.0
1536,7360037.129823415
1537,0.0
9,46894289.19282794
45,6876431.089379999
182,8616830.08824
294,24102524.186933806
319,0.0
629,947305.4139021575
682,23238633.47100167
695,696122.6013057821
709,28178138.587119856
733,28178138.587119856
760,29757600.0
785,0.0
798,0.0
2,2, 1, 2, 0, 7, 0.00,60.00,Tuesday
342,21.0
343,24.0
382,21.0
383,24.0
422,21.0
423,90.0
462,21.0
463,24.0
502,21.0
503,24.0
1530,113836676.08773151
1531,0.0
1532,450901872.7264348
1533,0.0
1534,58829032.087589409
1535,0.0
1536,59872200.07256776
1537,0.0
9,95644056.10245152
45,6876431.089379999
182,8616830.08824
294,397575282.31936207
319,0.0
629,43817787.85843718
682,646236121.4252772
695,6575407.066394344
709,813010130.8145543
733,813010130.8145543
760,29757600.0
785,0.0
798,0.0
2,2, 1, 2, 0, 8, 0.00,60.00,Tuesday
342,21.0
343,24.0
382,21.0
383,24.0
422,21.0
423,90.0
462,21.0
463,24.0
502,21.0
503,24.0
1530,83821364.70412894
1531,0.0
1532,356314668.4506875
1533,0.0
1534,44466397.267088208
1535,0.0
1536,47275324.30227347
1537,0.0
9,103425149.53818834
45,27505724.357519997
182,17233660.17648
294,247191843.42633153
319,0.0
629,43817787.85843718
682,493047465.25448307
695,4948777.145751173
709,620525956.8391812
733,620525956.8391812
760,9919200.0
785,0.0
798,0.0
2,2, 1, 2, 0, 9, 0.00,60.00,Tuesday
342,21.0
343,24.0
382,21.0
383,24.0
422,21.0
423,90.0
462,21.0
463,24.0
502,21.0
503,24.0
1530,72656113.97835064
1531,0.0
1532,315321745.89681437
1533,0.0
1534,36740945.753744337
1535,0.0
1536,41497880.07144703
1537,0.0
9,146978558.0319039
45,68764310.8938
182,30158905.30883999
294,185477880.89476899
319,0.0
629,43817787.85843718
682,426675173.0557356
695,4237553.970826674
709,537135744.836522
733,537135744.836522
760,0.0
785,0.0
798,0.0
2,2, 1, 2, 0,10, 0.00,60.00,Tuesday
342,21.0
343,24.0
382,21.0
383,24.0
422,21.0
423,90.0
462,21.0
463,24.0
502,21.0
503,24.0
1530,63143612.84666838
1531,0.0
1532,261720871.29357384
1533,0.0
1534,28478419.952979659
1535,0.0
1536,34619147.815632019
1537,0.0
9,209865084.307747
45,123775759.60884
182,38775735.39708
294,114498034.79948724
319,0.0
629,43817787.85843718
682,347678786.7367982
695,3495801.4433897698
709,437599475.8470427
733,437599475.8470427
760,0.0
785,0.0
798,0.0
2,2, 1, 2, 0,11, 0.00,60.00,Tuesday
342,21.0
343,24.0
382,21.0
383,24.0
422,21.0
423,90.0
462,21.0
463,24.0
502,21.0
503,24.0
1530,57705271.911754619
1531,0.0
1532,237230583.57114775
1533,0.0
1534,24857536.63979466
1535,0.0
1536,31139430.77441763
1537,0.0
9,209439793.4645623
45,123775759.60884
182,38775735.39708
294,89001594.85308923
319,0.0
629,43817787.85843718
682,310224266.88187488
695,3070510.600205092
709,390527994.4630608
733,390527994.4630608
760,0.0
785,0.0
798,0.0
2,2, 1, 2, 0,12, 0.00,60.00,Tuesday
342,21.0
343,24.0
382,21.0
383,24.0
422,21.0
423,90.0
462,21.0
463,24.0
502,21.0
503,24.0
1530,53551598.35989647
1531,0.0
1532,210909727.33221967
1533,0.0
1534,21307526.674081886
1535,0.0
1536,27609058.85660144
1537,0.0
9,209031079.34255649
45,123775759.60884
182,38775735.39708
294,57152758.55607106
319,0.0
629,43817787.85843718
682,272260641.0855544
695,2661796.4781993
709,342740737.68302229
733,342740737.68302229
760,0.0
785,0.0
798,0.0
2,2, 1, 2, 0,13, 0.00,60.00,Tuesday
342,21.0
343,24.0
382,21.0
383,24.0
422,21.0
423,90.0
462,21.0
463,24.0
502,21.0
503,24.0
1530,51182822.752381909
1531,0.0
1532,202763182.93625248
1533,0.0
1534,19854168.533225538
1535,0.0
1536,26142183.955940799
1537,0.0
9,208824981.51746149
45,123775759.60884
182,38775735.39708
294,43449695.657282
319,0.0
629,43817787.85843718
682,258618990.21545855
695,2455698.653104299
709,325685189.1845927
733,325685189.1845927
760,0.0
785,0.0
798,0.0
2,2, 1, 2, 0,14, 0.00,60.00,Tuesday
342,21.0
343,24.0
382,21.0
383,24.0
422,21.0
423,90.0
462,21.0
463,24.0
502,21.0
503,24.0
1530,50837500.17017548
1531,0.0
1532,207643791.08041979
1533,0.0
1534,20402736.74250439
1535,0.0
1536,26683225.213918918
1537,0.0
9,208863325.26551766
45,123775759.60884
182,38775735.39708
294,36583350.9708087
319,1010685.4961394594
629,43817787.85843718
682,264282228.99273629
695,2494042.4011604425
709,332872737.7193304
733,332872737.7193304
760,0.0
785,0.0
798,0.0
2,2, 1, 2, 0,15, 0.00,60.00,Tuesday
342,21.0
343,24.0
382,21.0
383,24.0
422,21.0
423,90.0
462,21.0
463,24.0
502,21.0
503,24.0
1530,50764510.358496058
1531,0.0
1532,214226304.9559014
1533,0.0
1534,21474403.230779336
1535,0.0
1536,27767088.091678766
1537,0.0
9,209003231.22915907
45,123775759.60884
182,38775735.39708
294,35275871.62511979
319,5235181.597196963
629,43817787.85843718
682,273087188.38621249
695,2633948.364801883
709,343915032.5154532
733,343915032.5154532
760,0.0
785,0.0
798,0.0
2,2, 1, 2, 0,16, 0.00,60.00,Tuesday
342,21.0
343,24.0
382,21.0
383,24.0
422,21.0
423,90.0
462,21.0
463,24.0
502,21.0
503,24.0
1530,47954092.594680849
1531,0.0
1532,198684733.03465194
1533,0.0
1534,20024207.74738161
1535,0.0
1536,26664828.95193529
1537,0.0
9,208987629.33284397
45,123775759.60884
182,38775735.39708
294,32377667.489541815
319,17206960.73994988
629,43817787.85843718
682,252167142.18169017
695,2618346.468486783
709,317286349.82502606
733,317286349.82502606
760,0.0
785,0.0
798,0.0
2,2, 1, 2, 0,17, 0.00,60.00,Tuesday
342,21.0
343,24.0
382,21.0
383,24.0
422,21.0
423,90.0
462,21.0
463,24.0
502,21.0
503,24.0
1530,46164824.09724648
1531,0.0
1532,195557948.32570119
1533,0.0
1534,20552847.328258549
1535,0.0
1536,26857698.746021268
1537,0.0
9,228928149.34252505
45,123775759.60884
182,38775735.39708
294,31918937.23525336
319,14194157.352871266
629,43817787.85843718
682,248074718.35994885
695,2720466.478167839
709,311942952.5771277
733,311942952.5771277
760,19838400.0
785,0.0
798,0.0
2,2, 1, 2, 0,18, 0.00,60.00,Tuesday
342,21.0
343,24.0
382,21.0
383,24.0
422,21.0
423,90.0
462,21.0
463,24.0
502,21.0
503,24.0
1530,47408845.48564483
1531,0.0
1532,213962495.53178949
1533,0.0
1534,22599702.58872974
1535,0.0
1536,29008127.165844919
1537,0.0
9,239080266.6798789
45,123775759.60884
182,38775735.39708
294,35379238.57163499
319,2995308.212891989
629,43817787.85843718
682,272153487.9720819
695,2953383.815521662
709,342340157.2541302
733,342340157.2541302
760,29757600.0
785,0.0
798,0.0
2,2, 1, 2, 0,19, 0.00,60.00,Tuesday
342,21.0
343,24.0
382,21.0
383,24.0
422,21.0
423,90.0
462,21.0
463,24.0
502,21.0
503,24.0
1530,48650332.1882857
1531,0.0
1532,220252152.3823274
1533,0.0
1534,23837816.843899039
1535,0.0
1536,29760570.889427969
1537,0.0
9,193560622.88762538
45,82517173.07255998
182,34467320.35296
294,44641174.83036504
319,0.0
629,43817787.85843718
682,281722547.2921596
695,3000741.60366816
709,354443875.73476669
733,354443875.73476669
760,29757600.0
785,0.0
798,0.0
2,2, 1, 2, 0,20, 0.00,60.00,Tuesday
342,21.0
343,24.0
382,21.0
383,24.0
422,21.0
423,90.0
462,21.0
463,24.0
502,21.0
503,24.0
1530,48473492.93778527
1531,0.0
1532,225713927.65153284
1533,0.0
1534,24394389.668775385
1535,0.0
1536,30314923.533652426
1537,0.0
9,193612983.3381124
45,82517173.07255998
182,34467320.35296
294,61728689.71695174
319,0.0
629,43817787.85843718
682,288170769.2304566
695,3053102.0541552116
709,362613759.4941831
733,362613759.4941831
760,29757600.0
785,0.0
798,0.0
2,2, 1, 2, 0,21, 0.00,60.00,Tuesday
342,21.0
343,24.0
382,21.0
383,24.0
422,21.0
423,90.0
462,21.0
463,24.0
502,21.0
503,24.0
1530,48875214.197421889
1531,0.0
1532,225083310.47848059
1533,0.0
1534,24962233.751375013
1535,0.0
1536,30301636.636914717
1537,0.0
9,175542220.6311032
45,68764310.8938
182,30158905.30883999
294,69494190.16856033
319,0.0
629,43817787.85843718
682,288486945.0187703
695,3043616.5700259346
709,363000623.99585697
733,363000623.99585697
760,29757600.0
785,0.0
798,0.0
2,2, 1, 2, 0,22, 0.00,60.00,Tuesday
342,15.6
343,30.0
382,15.6
383,30.0
422,15.6
423,90.0
462,15.6
463,30.0
502,15.6
503,30.0
1530,0.0
1531,0.0
1532,0.0
1533,0.0
1534,0.0
1535,0.0
1536,0.0
1537,0.0
9,74496984.534
45,27505724.357519997
182,17233660.17648
294,0.0
319,0.0
629,0.0
682,0.0
695,0.0
709,0.0
733,0.0
760,29757600.0
785,0.0
798,0.0
2,2, 1, 2, 0,23, 0.00,60.00,Tuesday
342,15.6
343,30.0
382,15.6
383,30.0
422,15.6
423,90.0
462,15.6
463,30.0
502,15.6
503,30.0
1530,0.0
1531,0.0
1532,0.0
1533,0.0
1534,0.0
1535,0.0
1536,0.0
1537,0.0
9,45250861.17762001
45,6876431.089379999
182,8616830.08824
294,0.0
319,0.0
629,0.0
682,0.0
695,0.0
709,0.0
733,0.0
760,29757600.0
785,0.0
798,0.0
2,2, 1, 2, 0,24, 0.00,60.00,Tuesday
342,15.6
343,30.0
382,15.6
383,30.0
422,15.6
423,90.0
462,15.6
463,30.0
502,15.6
503,30.0
1530,0.0
1531,0.0
1532,0.0
1533,0.0
1534,0.0
1535,0.0
1536,0.0
1537,0.0
9,45250861.17762001
45,6876431.089379999
182,8616830.08824
294,0.0
319,0.0
629,0.0
682,0.0
695,0.0
709,0.0
733,0.0
760,29757600.0
785,0.0
798,0.0
2,3, 1, 3, 0, 1, 0.00,60.00,Wednesday
342,15.6
343,30.0
382,15.6
383,30.0
422,15.6
423,90.0
462,15.6
463,30.0
502,15.6
503,30.0
1530,0.0
1531,0.0
1532,0.0
1533,0.0
1534,0.0
1535,0.0
1536,0.0
1537,0.0
9,45250861.17762001
45,6876431.089379999
182,8616830.08824
294,0.0
319,0.0
629,0.0
682,0.0
695,0.0
709,0.0
733,0.0
760,29757600.0
785,0.0
798,0.0
2,3, 1, 3, 0, 2, 0.00,60.00,Wednesday
342,15.6
343,30.0
382,15.6
383,30.0
422,15.6
423,90.0
462,15.6
463,30.0
502,15.6
503,30.0
1530,0.0
1531,0.0
1532,0.0
1533,0.0
1534,0.0
1535,0.0
1536,0.0
1537,0.0
9,45329618.39986944
45,6876431.089379999
182,8616830.08824
294,82517.05200270534
319,0.0
629,32267.702492878183
682,46489.51975656244
695,46489.51975656244
709,0.0
733,0.0
760,29757600.0
785,0.0
798,0.0
2,3, 1, 3, 0, 3, 0.00,60.00,Wednesday
342,15.6
343,30.0
382,15.6
383,30.0
422,15.6
423,90.0
462,15.6
463,30.0
502,15.6
503,30.0
1530,0.0
1531,0.0
1532,0.0
1533,0.0
1534,0.0
1535,0.0
1536,2137829.475504528
1537,0.0
9,45575080.56103794
45,6876431.089379999
182,8616830.08824
294,2362474.6529094979
319,0.0
629,123530.58705620888
682,2253708.9278014909
695,200688.7963617317
709,2566275.1642996987
733,2566275.1642996987
760,29757600.0
785,0.0
798,0.0
2,3, 1, 3, 0, 4, 0.00,60.00,Wednesday
342,15.6
343,30.0
382,15.6
383,30.0
422,15.6
423,90.0
462,15.6
463,30.0
502,15.6
503,30.0
1530,0.0
1531,0.0
1532,0.0
1533,0.0
1534,0.0
1535,0.0
1536,2511397.7849080527
1537,0.0
9,45708118.267002899
45,6876431.089379999
182,8616830.08824
294,2852857.770346643
319,0.0
629,138407.9922112297
682,2730560.132859953
695,318849.0971716662
709,3014638.7946103585
733,3014638.7946103585
760,29757600.0
785,0.0
798,0.0
2,3, 1, 3, 0, 5, 0.00,60.00,Wednesday
342,15.6
343,30.0
382,15.6
383,30.0
422,15.6
423,90.0
462,15.6
463,30.0
502,15.6
503,30.0
1530,0.0
1531,0.0
1532,0.0
1533,0.0
1534,2609337.178013542
1535,0.0
1536,4571248.243495046
1537,0.0
9,46019589.407061878
45,6876431.089379999
182,8616830.08824
294,7598488.974616494
319,0.0
629,321068.849112484
682,7345897.195717031
695,447659.380329392
709,8622797.26923455
733,8622797.26923455
760,29757600.0
785,0.0
798,0.0
2,3, 1, 3, 0, 6, 0.00,60.00,Wednesday
342,15.599999999999996
343,30.0
382,15.599999999999996
383,30.0
422,15.599999999999996
423,90.0
462,15.599999999999996
463,30.0
502,15.599999999999996
503,30.0
1530,2431922.649191588
1531,0.0
1532,0.0
1533,0.0
1534,4322038.455600072
1535,0.0
1536,6107922.19842362
1537,0.0
9,46366637.59621241
45,6876431.089379999
182,8616830.08824
294,13399397.124236513
319,0.0
629,541342.8804973972
682,12933695.203804627
695,574433.538095012
709,15449077.082137019
733,15449077.082137019
760,29757600.0
785,0.0
798,0.0
2,3, 1, 3, 0, 7, 0.00,60.00,Wednesday
342,21.0
343,24.0
382,21.0
383,24.0
422,21.0
423,90.0
462,21.0
463,24.0
502,21.0
503,24.0
1530,108346103.13259688
1531,0.0
1532,439596864.26838496
1533,0.0
1534,59470907.989282
1535,0.0
1536,60887386.097747888
1537,0.0
9,95704337.65291202
45,6876431.089379999
182,8616830.08824
294,355098529.13344839
319,0.0
629,43817787.85843718
682,631157883.4894188
695,6635688.61685485
709,793724641.4419744
733,793724641.4419744
760,29757600.0
785,0.0
798,0.0
2,3, 1, 3, 0, 8, 0.00,60.00,Wednesday
342,21.0
343,24.0
382,21.0
383,24.0
422,21.0
423,90.0
462,21.0
463,24.0
502,21.0
503,24.0
1530,81571277.70170529
1531,0.0
1532,364761265.31256708
1533,0.0
1534,46392778.71415821
1535,0.0
1536,49463907.066747669
1537,0.0
9,103641702.19504825
45,27505724.357519997
182,17233660.17648
294,221590914.86286
319,0.0
629,43817787.85843718
682,503575491.9823452
695,5165329.80261106
709,633686023.6863278
733,633686023.6863278
760,9919200.0
785,0.0
798,0.0
2,3, 1, 3, 0, 9, 0.00,60.00,Wednesday
342,21.0
343,24.0
382,21.0
383,24.0
422,21.0
423,90.0
462,21.0
463,24.0
502,21.0
503,24.0
1530,73439984.84721682
1531,0.0
1532,340732969.461726
1533,0.0
1534,40031318.41428596
1535,0.0
1536,44992358.029392328
1537,0.0
9,147271384.72984416
45,68764310.8938
182,30158905.30883999
294,169393347.97357504
319,0.0
629,43817787.85843718
682,459947944.8059402
695,4530380.668766964
709,579175138.4455996
733,579175138.4455996
760,0.0
785,0.0
798,0.0
2,3, 1, 3, 0,10, 0.00,60.00,Wednesday
342,21.0
343,24.0
382,21.0
383,24.0
422,21.0
423,90.0
462,21.0
463,24.0
502,21.0
503,24.0
1530,66840184.91770616
1531,0.0
1532,303741215.64299938
1533,0.0
1534,33375310.04461167
1535,0.0
1536,39670341.90373677
1537,0.0
9,210284134.80852578
45,123775759.60884
182,38775735.39708
294,107091585.06146027
319,0.0
629,43817787.85843718
682,403762837.83777728
695,3914851.94416856
709,508527532.5059284
733,508527532.5059284
760,0.0
785,0.0