Program Version,EnergyPlus, Version 9.2.0-921312fa1d, YMD=2020.12.22 17:59
1,5,Environment Title[],Latitude[deg],Longitude[deg],Time Zone[],Elevation[m]
2,8,Day of Simulation[],Month[],Day of Month[],DST Indicator[1=yes 0=no],Hour[],StartMinute[],EndMinute[],DayType
3,5,Cumulative Day of Simulation[],Month[],Day of Month[],DST Indicator[1=yes 0=no],DayType  ! When Daily Meters Requested
4,2,Cumulative Days of Simulation[],Month[]  ! When Monthly Meters Requested
5,1,Cumulative Days of Simulation[] ! When Run Period Meters Requested
6,1,Calendar Year of Simulation[] ! When Annual Meters Requested
9,1,Electricity:Facility [J] !Hourly
695,1,Heating:Electricity [J] !Hourly
798,1,Cooling:Electricity [J] !Hourly
45,1,InteriorLights:Electricity [J] !Hourly
760,1,ExteriorLights:Electricity [J] !Hourly
182,1,InteriorEquipment:Electricity [J] !Hourly
629,1,Fans:Electricity [J] !Hourly
709,1,Gas:Facility [J] !Hourly
733,1,Heating:Gas [J] !Hourly
294,1,Heating:EnergyTransfer [J] !Hourly
319,1,Cooling:EnergyTransfer [J] !Hourly
682,1,HeatingCoils:EnergyTransfer [J] !Hourly
785,1,CoolingCoils:EnergyTransfer [J] !Hourly
End of Data Dictionary
1,RUNPERIOD 1,  41.98, -87.92,  -6.00, 201.00
2,1, 1, 1, 0, 1, 0.00,60.00,Holiday
9,45102734.49550967
45,6876431.089379999
182,6462622.566179999
294,32483978.186986038
319,0.0
629,1266261.2105132514
682,31436560.875174855
695,739819.6294364128
709,38370926.55717306
733,38370926.55717306
760,29757600.0
785,0.0
798,0.0
2,1, 1, 1, 0, 2, 0.00,60.00,Holiday
9,45865333.97729023
45,6876431.089379999
182,6462622.566179999
294,42997292.42455804
319,0.0
629,1667929.808305433
682,41533910.77630377
695,1100750.5134247938
709,50541450.32859872
733,50541450.32859872
760,29757600.0
785,0.0
798,0.0
2,1, 1, 1, 0, 3, 0.00,60.00,Holiday
9,46163402.42953964
45,6876431.089379999
182,6462622.566179999
294,49016713.90417579
319,0.0
629,1891557.8703210774
682,47574336.41502193
695,1175190.903658568
709,57998931.889204207
733,57998931.889204207
760,29757600.0
785,0.0
798,0.0
2,1, 1, 1, 0, 4, 0.00,60.00,Holiday
9,46180192.07464109
45,6876431.089379999
182,6462622.566179999
294,47215399.25514288
319,0.0
629,1827684.9390338367
682,45636174.06316081
695,1255853.4800472595
709,55475400.72889193
733,55475400.72889193
760,29757600.0
785,0.0
798,0.0
2,1, 1, 1, 0, 5, 0.00,60.00,Holiday
9,46504266.00997199
45,6876431.089379999
182,6462622.566179999
294,53800436.42396906
319,0.0
629,2071602.8089578294
682,52283240.12319183
695,1336009.545454162
709,63684038.22217209
733,63684038.22217209
760,29757600.0
785,0.0
798,0.0
2,1, 1, 1, 0, 6, 0.00,60.00,Holiday
9,47718327.22229505
45,6876431.089379999
182,6462622.566179999
294,70234472.65823339
319,0.0
629,3212339.6794585029
682,67458252.03162642
695,1409333.8872765455
709,83136290.83029431
733,83136290.83029431
760,29757600.0
785,0.0
798,0.0
2,1, 1, 1, 0, 7, 0.00,60.00,Holiday
9,48564276.02248787
45,6876431.089379999
182,6462622.566179999
294,85062114.92476133
319,0.0
629,3986830.809634465
682,81975811.85033703
695,1480791.557293412
709,101441354.44601977
733,101441354.44601977
760,29757600.0
785,0.0
798,0.0
2,1, 1, 1, 0, 8, 0.00,60.00,Holiday
9,28440624.10542924
45,6876431.089379999
182,6462622.566179999
294,79717428.2394109
319,0.0
629,3790559.0191186449
682,76384332.53282744
695,1391811.4307505943
709,94557359.82635707
733,94557359.82635707
760,9919200.0
785,0.0
798,0.0
2,1, 1, 1, 0, 9, 0.00,60.00,Holiday
9,77318969.48589719
45,13752862.178759998
182,12925245.132359999
294,440336200.6874716
319,0.0
629,43817787.85843718
682,801574382.2333527
695,6823074.316340021
709,1010611962.0516695
733,1010611962.0516695
760,0.0
785,0.0
798,0.0
2,1, 1, 1, 0,10, 0.00,60.00,Holiday
9,74420847.02640446
45,13752862.178759998
182,12925245.132359999
294,282016198.3211837
319,0.0
629,43817787.85843718
682,621092778.8322178
695,3924951.8568472869
709,785187164.5729644
733,785187164.5729644
760,0.0
785,0.0
798,0.0
2,1, 1, 1, 0,11, 0.00,60.00,Holiday
9,127177417.37591107
45,55011448.71503999
182,25850490.264719998
294,207846981.3151289
319,0.0
629,43817787.85843718
682,521511227.0320471
695,2497690.537713869
709,660510565.8742963
733,660510565.8742963
760,0.0
785,0.0
798,0.0
2,1, 1, 1, 0,12, 0.00,60.00,Holiday
9,126676399.60387647
45,55011448.71503999
182,25850490.264719998
294,176134978.90443529
319,0.0
629,43817787.85843718
682,467214469.9466166
695,1996672.7656792955
709,592093234.6143117
733,592093234.6143117
760,0.0
785,0.0
798,0.0
2,1, 1, 1, 0,13, 0.00,60.00,Holiday
9,163182168.67763595
45,82517173.07255998
182,34467320.35296
294,132072437.72408635
319,0.0
629,43817787.85843718
682,405188068.0302051
695,2379887.3936787096
709,512537718.8869501
733,512537718.8869501
760,0.0
785,0.0
798,0.0
2,1, 1, 1, 0,14, 0.00,60.00,Holiday
9,163452402.4121837
45,82517173.07255998
182,34467320.35296
294,114930430.03294945
319,0.0
629,43817787.85843718
682,373382226.71814396
695,2650121.1282265034
709,471640295.9823283
733,471640295.9823283
760,0.0
785,0.0
798,0.0
2,1, 1, 1, 0,15, 0.00,60.00,Holiday
9,163522231.23479695
45,82517173.07255998
182,34467320.35296
294,102401869.67812218
319,0.0
629,43817787.85843718
682,354770386.89665928
695,2719949.9508397367
709,447848927.702672
733,447848927.702672
760,0.0
785,0.0
798,0.0
2,1, 1, 1, 0,16, 0.00,60.00,Holiday
9,163737861.01593108
45,82517173.07255998
182,34467320.35296
294,95412146.56241465
319,0.0
629,43817787.85843718
682,347861956.9636766
695,2935579.731973889
709,438748943.2767529
733,438748943.2767529
760,0.0
785,0.0
798,0.0
2,1, 1, 1, 0,17, 0.00,60.00,Holiday
9,183795684.41634549
45,82517173.07255998
182,34467320.35296
294,91038126.90881713
319,0.0
629,43817787.85843718
682,343524947.6092664
695,3155003.132388261
709,432920133.5275964
733,432920133.5275964
760,19838400.0
785,0.0
798,0.0
2,1, 1, 1, 0,18, 0.00,60.00,Holiday
9,156289647.10200585
45,55011448.71503999
182,25850490.264719998
294,168854569.2812637
319,0.0
629,43817787.85843718
682,426009065.8865222
695,1852320.263808645
709,539317691.9106001
733,539317691.9106001
760,29757600.0
785,0.0
798,0.0
2,1, 1, 1, 0,19, 0.00,60.00,Holiday
9,120380148.18442956
45,27505724.357519997
182,17233660.17648
294,195413071.50495024
319,0.0
629,43817787.85843718
682,459832828.39779838
695,2065375.7919923573
709,582063430.0436183
733,582063430.0436183
760,29757600.0
785,0.0
798,0.0
2,1, 1, 1, 0,20, 0.00,60.00,Holiday
9,43096653.65556
45,6876431.089379999
182,6462622.566179999
294,0.0
319,0.0
629,0.0
682,0.0
695,0.0
709,0.0
733,0.0
760,29757600.0
785,0.0
798,0.0
2,1, 1, 1, 0,21, 0.00,60.00,Holiday
9,43096653.65556
45,6876431.089379999
182,6462622.566179999
294,0.0
319,0.0
629,0.0
682,0.0
695,0.0
709,0.0
733,0.0
760,29757600.0
785,0.0
798,0.0
2,1, 1, 1, 0,22, 0.00,60.00,Holiday
9,43096653.65556
45,6876431.089379999
182,6462622.566179999
294,0.0
319,0.0
629,0.0
682,0.0
695,0.0
709,0.0
733,0.0
760,29757600.0
785,0.0
798,0.0
2,1, 1, 1, 0,23, 0.00,60.00,Holiday
9,43228546.45539661
45,6876431.089379999
182,6462622.566179999
294,1172963.7697452959
319,0.0
629,69161.35765624006
682,1119336.295269149
695,62731.44218036633
709,1320756.0663609782
733,1320756.0663609782
760,29757600.0
785,0.0
798,0.0
2,1, 1, 1, 0,24, 0.00,60.00,Holiday
9,43656016.35852344
45,6876431.089379999
182,6462622.566179999
294,6474522.307532144
319,0.0
629,283759.61304217189
682,6224621.441719924
695,275603.08992127879
709,7436272.939748306
733,7436272.939748306
760,29757600.0
785,0.0
798,0.0
2,2, 1, 2, 0, 1, 0.00,60.00,Tuesday
9,46490668.13382238
45,6876431.089379999
182,8616830.08824
294,19332565.03365767
319,0.0
629,767016.5442103034
682,18709739.80098713
695,472790.4119920754
709,22796186.736243816
733,22796186.736243816
760,29757600.0
785,0.0
798,0.0
2,2, 1, 2, 0, 2, 0.00,60.00,Tuesday
9,46670104.27919462
45,6876431.089379999
182,8616830.08824
294,20918418.08520231
319,0.0
629,828299.4314817052
682,20176140.101246489
695,590943.6700929182
709,24481495.53894196
733,24481495.53894196
760,29757600.0
785,0.0
798,0.0
2,2, 1, 2, 0, 3, 0.00,60.00,Tuesday
9,46876493.07252847
45,6876431.089379999
182,8616830.08824
294,24655648.533823573
319,0.0
629,966432.5465649632
682,23861162.246763886
695,659199.3483435016
709,29002453.623025478
733,29002453.623025478
760,29757600.0
785,0.0
798,0.0
2,2, 1, 2, 0, 4, 0.00,60.00,Tuesday
9,46944763.557853978
45,6876431.089379999
182,8616830.08824
294,25056774.515815114
319,0.0
629,984140.0675383727
682,24162279.076392138
695,709762.3126956085
709,29315645.95462066
733,29315645.95462066
760,29757600.0
785,0.0
798,0.0
2,2, 1, 2, 0, 5, 0.00,60.00,Tuesday
9,46976222.82553306
45,6876431.089379999
182,8616830.08824
294,26368337.114489177
319,0.0
629,1030596.3828733168
682,25511038.66993676
695,694765.2650397518
709,31020341.75612126
733,31020341.75612126
760,29757600.0
785,0.0
798,0.0
2,2, 1, 2, 0, 6, 0.00,60.00,Tuesday
9,46894289.19282794
45,6876431.089379999
182,8616830.08824
294,24102524.186933806
319,0.0
629,947305.4139021575
682,23238633.47100167
695,696122.6013057821
709,28178138.587119856
733,28178138.587119856
760,29757600.0
785,0.0
798,0.0
2,2, 1, 2, 0, 7, 0.00,60.00,Tuesday
9,95644056.10245152
45,6876431.089379999
182,8616830.08824
294,397575282.31936207
319,0.0
629,43817787.85843718
682,646236121.4252772
695,6575407.066394344
709,813010130.8145543
733,813010130.8145543
760,29757600.0
785,0.0
798,0.0
2,2, 1, 2, 0, 8, 0.00,60.00,Tuesday
9,103425149.53818834
45,27505724.357519997
182,17233660.17648
294,247191843.42633153
319,0.0
629,43817787.85843718
682,493047465.25448307
695,4948777.145751173
709,620525956.8391812
733,620525956.8391812
760,9919200.0
785,0.0
798,0.0
2,2, 1, 2, 0, 9, 0.00,60.00,Tuesday
9,146978558.0319039
45,68764310.8938
182,30158905.30883999
294,185477880.89476899
319,0.0
629,43817787.85843718
682,426675173.0557356
695,4237553.970826674
709,537135744.836522
733,537135744.836522
760,0.0
785,0.0
798,0.0
2,2, 1, 2, 0,10, 0.00,60.00,Tuesday
9,209865084.307747
45,123775759.60884
182,38775735.39708
294,114498034.79948724
319,0.0
629,43817787.85843718
682,347678786.7367982
695,3495801.4433897698
709,437599475.8470427
733,437599475.8470427
760,0.0
785,0.0
798,0.0
2,2, 1, 2, 0,11, 0.00,60.00,Tuesday
9,209439793.4645623
45,123775759.60884
182,38775735.39708
294,89001594.85308923
319,0.0
629,43817787.85843718
682,310224266.88187488
695,3070510.600205092
709,390527994.4630608
733,390527994.4630608
760,0.0
785,0.0
798,0.0
2,2, 1, 2, 0,12, 0.00,60.00,Tuesday
9,209031079.34255649
45,123775759.60884
182,38775735.39708
294,57152758.55607106
319,0.0
629,43817787.85843718
682,272260641.0855544
695,2661796.4781993
709,342740737.68302229
733,342740737.68302229
760,0.0
785,0.0
798,0.0
2,2, 1, 2, 0,13, 0.00,60.00,Tuesday
9,208824981.51746149
45,123775759.60884
182,38775735.39708
294,43449695.657282
319,0.0
629,43817787.85843718
682,258618990.21545855
695,2455698.653104299
709,325685189.1845927
733,325685189.1845927
760,0.0
785,0.0
798,0.0
2,2, 1, 2, 0,14, 0.00,60.00,Tuesday
9,208863325.26551766
45,123775759.60884
182,38775735.39708
294,36583350.9708087
319,1010685.4961394594
629,43817787.85843718
682,264282228.99273629
695,2494042.4011604425
709,332872737.7193304
733,332872737.7193304
760,0.0
785,0.0
798,0.0
2,2, 1, 2, 0,15, 0.00,60.00,Tuesday
9,209003231.22915907
45,123775759.60884
182,38775735.39708
294,35275871.62511979
319,5235181.597196963
629,43817787.85843718
682,273087188.38621249
695,2633948.364801883
709,343915032.5154532
733,343915032.5154532
760,0.0
785,0.0
798,0.0
2,2, 1, 2, 0,16, 0.00,60.00,Tuesday
9,208987629.33284397
45,123775759.60884
182,38775735.39708
294,32377667.489541815
319,17206960.73994988
629,43817787.85843718
682,252167142.18169017
695,2618346.468486783
709,317286349.82502606
733,317286349.82502606
760,0.0
785,0.0
798,0.0
2,2, 1, 2, 0,17, 0.00,60.00,Tuesday
9,228928149.34252505
45,123775759.60884
182,38775735.39708
294,31918937.23525336
319,14194157.352871266
629,43817787.85843718
682,248074718.35994885
695,2720466.478167839
709,311942952.5771277
733,311942952.5771277
760,19838400.0
785,0.0
798,0.0
2,2, 1, 2, 0,18, 0.00,60.00,Tuesday
9,239080266.6798789
45,123775759.60884
182,38775735.39708
294,35379238.57163499
319,2995308.212891989
629,43817787.85843718
682,272153487.9720819
695,2953383.815521662
709,342340157.2541302
733,342340157.2541302
760,29757600.0
785,0.0
798,0.0
2,2, 1, 2, 0,19, 0.00,60.00,Tuesday
9,193560622.88762538
45,82517173.07255998
182,34467320.35296
294,44641174.83036504
319,0.0
629,43817787.85843718
682,281722547.2921596
695,3000741.60366816
709,354443875.73476669
733,354443875.73476669
760,29757600.0
785,0.0
798,0.0
2,2, 1, 2, 0,20, 0.00,60.00,Tuesday
9,193612983.3381124
45,82517173.07255998
182,34467320.35296
294,61728689.71695174
319,0.0
629,43817787.85843718
682,288170769.2304566
695,3053102.0541552116
709,362613759.4941831
733,362613759.4941831
760,29757600.0
785,0.0
798,0.0
2,2, 1, 2, 0,21, 0.00,60.00,Tuesday
9,175542220.6311032
45,68764310.8938
182,30158905.30883999
294,69494190.16856033
319,0.0
629,43817787.85843718
682,288486945.0187703
695,3043616.5700259346
709,363000623.99585697
733,363000623.99585697
760,29757600.0
785,0.0
798,0.0
2,2, 1, 2, 0,22, 0.00,60.00,Tuesday
9,74496984.534
45,27505724.357519997
182,17233660.17648
294,0.0
319,0.0
629,0.0
682,0.0
695,0.0
709,0.0
733,0.0
760,29757600.0
785,0.0
798,0.0
2,2, 1, 2, 0,23, 0.00,60.00,Tuesday
9,45250861.17762001
45,6876431.089379999
182,8616830.08824
294,0.0
319,0.0
629,0.0
682,0.0
695,0.0
709,0.0
733,0.0
760,29757600.0
785,0.0
798,0.0
2,2, 1, 2, 0,24, 0.00,60.00,Tuesday
9,45250861.17762001
45,6876431.089379999
182,8616830.08824
294,0.0
319,0.0
629,0.0
682,0.0
695,0.0
709,0.0
733,0.0
760,29757600.0
785,0.0
798,0.0
2,3, 1, 3, 0, 1, 0.00,60.00,Wednesday
9,45250861.17762001
45,6876431.089379999
182,8616830.08824
294,0.0
319,0.0
629,0.0
682,0.0
695,0.0
709,0.0
733,0.0
760,29757600.0
785,0.0
798,0.0
2,3, 1, 3, 0, 2, 0.00,60.00,Wednesday
9,45329618.39986944
45,6876431.089379999
182,8616830.08824
294,82517.05200270534
319,0.0
629,32267.702492878183
682,46489.51975656244
695,46489.51975656244
709,0.0
733,0.0
760,29757600.0
785,0.0
798,0.0
2,3, 1, 3, 0, 3, 0.00,60.00,Wednesday
9,45575080.56103794
45,6876431.089379999
182,8616830.08824
294,2362474.6529094979
319,0.0
629,123530.58705620888
682,2253708.9278014909
695,200688.7963617317
709,2566275.1642996987
733,2566275.1642996987
760,29757600.0
785,0.0
798,0.0
2,3, 1, 3, 0, 4, 0.00,60.00,Wednesday
9,45708118.267002899
45,6876431.089379999
182,8616830.08824
294,2852857.770346643
319,0.0
629,138407.9922112297
682,2730560.132859953
695,318849.0971716662
709,3014638.7946103585
733,3014638.7946103585
760,29757600.0
785,0.0
798,0.0
2,3, 1, 3, 0, 5, 0.00,60.00,Wednesday
9,46019589.407061878
45,6876431.089379999
182,8616830.08824
294,7598488.974616494
319,0.0
629,321068.849112484
682,7345897.195717031
695,447659.380329392
709,8622797.26923455
733,8622797.26923455
760,29757600.0
785,0.0
798,0.0
2,3, 1, 3, 0, 6, 0.00,60.00,Wednesday
9,46366637.59621241
45,6876431.089379999
182,8616830.08824
294,13399397.124236513
319,0.0
629,541342.8804973972
682,12933695.203804627
695,574433.538095012
709,15449077.082137019
733,15449077.082137019
760,29757600.0
785,0.0
798,0.0
2,3, 1, 3, 0, 7, 0.00,60.00,Wednesday
9,95704337.65291202
45,6876431.089379999
182,8616830.08824
294,355098529.13344839
319,0.0
629,43817787.85843718
682,631157883.4894188
695,6635688.61685485
709,793724641.4419744
733,793724641.4419744
760,29757600.0
785,0.0
798,0.0
2,3, 1, 3, 0, 8, 0.00,60.00,Wednesday
9,103641702.19504825
45,27505724.357519997
182,17233660.17648
294,221590914.86286
319,0.0
629,43817787.85843718
682,503575491.9823452
695,5165329.80261106
709,633686023.6863278
733,633686023.6863278
760,9919200.0
785,0.0
798,0.0
2,3, 1, 3, 0, 9, 0.00,60.00,Wednesday
9,147271384.72984416
45,68764310.8938
182,30158905.30883999
294,169393347.97357504
319,0.0
629,43817787.85843718
682,459947944.8059402
695,4530380.668766964
709,579175138.4455996
733,579175138.4455996
760,0.0
785,0.0
798,0.0
2,3, 1, 3, 0,10, 0.00,60.00,Wednesday
9,210284134.80852578
45,123775759.60884
182,38775735.39708
294,107091585.06146027
319,0.0
629,43817787.85843718
682,403762837.83777728
695,3914851.94416856
709,508527532.5059284
733,508527532.5059284
760,0.0
785,0.0
798,0.0
2,3, 1, 3, 0,11, 0.00,60.00,Wednesday
9,209886764.23899836
45,123775759.60884
182,38775735.39708
294,87081080.37484603
319,0.0
629,43817787.85843718
682,379849570.02732327
695,3517481.37464111
709,478671991.81534758
733,478671991.81534758
760,0.0
785,0.0
798,0.0
2,3, 1, 3, 0,12, 0.00,60.00,Wednesday
9,209556018.62042035
45,123775759.60884
182,38775735.39708
294,59518045.1863375
319,0.0
629,43817787.85843718
682,344859305.7163447
695,3186735.756063111
709,434550920.77712658
733,434550920.77712658
760,0.0
785,0.0
798,0.0
2,3, 1, 3, 0,13, 0.00,60.00,Wednesday
9,209370014.61833633
45,123775759.60884
182,38775735.39708
294,48231695.93553335
319,0.0
629,43817787.85843718
682,326339149.46637627
695,3000731.753979118
709,411240424.4103497
733,411240424.4103497
760,0.0
785,0.0
798,0.0
2,3, 1, 3, 0,14, 0.00,60.00,Wednesday
9,209261920.16165299
45,123775759.60884
182,38775735.39708
294,39914848.28813462
319,246520.8439968817
629,43817787.85843718
682,314980572.4149139
695,2892637.297295767
709,396941662.5377286
733,396941662.5377286
760,0.0
785,0.0
798,0.0
2,3, 1, 3, 0,15, 0.00,60.00,Wednesday
9,209271992.8745377
45,123775759.60884
182,38775735.39708
294,37036277.94633259
319,3355624.9046352168
629,43817787.85843718
682,308995072.25686487
695,2902710.010180468
709,389315537.91579839
733,389315537.91579839
760,0.0
785,0.0
798,0.0
2,3, 1, 3, 0,16, 0.00,60.00,Wednesday
9,209300018.65476055
45,123775759.60884
182,38775735.39708
294,34560501.368097718
319,12245992.01459489
629,43817787.85843718
682,297635444.6535664
695,2930735.7904033248
709,374796226.87837448
733,374796226.87837448
760,0.0
785,0.0
798,0.0
2,3, 1, 3, 0,17, 0.00,60.00,Wednesday
9,229343810.8897456
45,123775759.60884
182,38775735.39708
294,36255524.672080118
319,8797451.781092646
629,43817787.85843718
682,302816978.9336579
695,3136128.025388414
709,381127847.95530655
733,381127847.95530655
760,19838400.0
785,0.0
798,0.0
2,3, 1, 3, 0,18, 0.00,60.00,Wednesday
9,239471147.86788256
45,123775759.60884
182,38775735.39708
294,41227330.85042841
319,0.0
629,43817787.85843718
682,316565568.68017306
695,3344265.0035253439
709,398390374.5422428
733,398390374.5422428
760,29757600.0
785,0.0
798,0.0
2,3, 1, 3, 0,19, 0.00,60.00,Wednesday
9,194018339.91537146
45,82517173.07255998
182,34467320.35296
294,55117879.32528386
319,0.0
629,43817787.85843718
682,330418853.72287335
695,3458458.631414215
709,415852103.5946817
733,415852103.5946817
760,29757600.0
785,0.0
798,0.0
2,3, 1, 3, 0,20, 0.00,60.00,Wednesday
9,194191183.05685658
45,82517173.07255998
182,34467320.35296
294,75553392.21385885
319,0.0
629,43817787.85843718
682,350891913.10954579
695,3631301.772899376
709,441718655.2434258
733,441718655.2434258
760,29757600.0
785,0.0
798,0.0
2,3, 1, 3, 0,21, 0.00,60.00,Wednesday
9,176203680.37712378
45,68764310.8938
182,30158905.30883999
294,85972062.2377494
319,0.0
629,43817787.85843718
682,361387712.9208221
695,3705076.3160465427
709,454955480.2973428
733,454955480.2973428
760,29757600.0
785,0.0
798,0.0
2,3, 1, 3, 0,22, 0.00,60.00,Wednesday
9,74496984.534
45,27505724.357519997
182,17233660.17648
294,0.0
319,0.0
629,0.0
682,0.0
695,0.0
709,0.0
733,0.0
760,29757600.0
785,0.0
798,0.0
2,3, 1, 3, 0,23, 0.00,60.00,Wednesday
9,45250861.17762001
45,6876431.089379999
182,8616830.08824
294,0.0
319,0.0
629,0.0
682,0.0
695,0.0
709,0.0
733,0.0
760,29757600.0
785,0.0
798,0.0
2,3, 1, 3, 0,24, 0.00,60.00,Wednesday
9,45273701.7923233
45,6876431.089379999
182,8616830.08824
294,26898.46597796013
319,0.0
629,12907.080997151274
682,9933.533706146407
695,9933.533706146407
709,0.0
733,0.0
760,29757600.0
785,0.0
798,0.0
2,4, 1, 4, 0, 1, 0.00,60.00,Thursday
9,45625607.130585927
45,6876431.089379999
182,8616830.08824
294,2804803.597587415
319,0.0
629,140023.36376565783
682,2681206.193320154
695,234722.5892002664
709,3058104.5051498606
733,3058104.5051498606
760,29757600.0
785,0.0
798,0.0
2,4, 1, 4, 0, 2, 0.00,60.00,Thursday
9,46044489.39880941
45,6876431.089379999
182,8616830.08824
294,8457574.684815787
319,0.0
629,356568.9926989596
682,8157871.296995422
695,437059.2284904547
709,9651015.08563121
733,9651015.08563121
760,29757600.0
785,0.0
798,0.0
2,4, 1, 4, 0, 3, 0.00,60.00,Thursday
9,46211552.09394368
45,6876431.089379999
182,8616830.08824
294,9600774.14843862
319,0.0
629,395980.5972488568
682,9253843.824809902
695,564710.319074825
709,10861416.882168845
733,10861416.882168845
760,29757600.0
785,0.0
798,0.0
2,4, 1, 4, 0, 4, 0.00,60.00,Thursday
9,46668096.49080647
45,6876431.089379999
182,8616830.08824
294,18910925.437491709
319,0.0
629,751402.1533350761
682,18260833.965915048
695,665833.1598513903
709,21993751.007579574
733,21993751.007579574
760,29757600.0
785,0.0
798,0.0
2,4, 1, 4, 0, 5, 0.00,60.00,Thursday
9,46806179.959351617
45,6876431.089379999
182,8616830.08824
294,20776597.14550091
319,0.0
629,816400.5005110035
682,20097669.63244469
695,738918.2812206101
709,24198439.189030105
733,24198439.189030105
760,29757600.0
785,0.0
798,0.0
2,4, 1, 4, 0, 6, 0.00,60.00,Thursday
9,47069611.671780768
45,6876431.089379999
182,8616830.08824
294,26260379.652511874
319,0.0
629,1029343.2593878082
682,25358572.716337399
695,789407.2347729632
709,30711456.851955546
733,30711456.851955546
760,29757600.0
785,0.0
798,0.0
2,4, 1, 4, 0, 7, 0.00,60.00,Thursday
9,95926385.8935263
45,6876431.089379999
182,8616830.08824
294,376240658.3366367
319,0.0
629,43817787.85843718
682,654426897.9912915
695,6857736.85746913
709,823071388.6830253
733,823071388.6830253
760,29757600.0
785,0.0
798,0.0
2,4, 1, 4, 0, 8, 0.00,60.00,Thursday
9,103713814.51979041
45,27505724.357519997
182,17233660.17648
294,234094065.15393473
319,0.0
629,43817787.85843718
682,509630489.6256068
695,5237442.127353238
709,641273190.540848
733,641273190.540848
760,9919200.0
785,0.0
798,0.0
2,4, 1, 4, 0, 9, 0.00,60.00,Thursday
9,147208336.63767363
45,68764310.8938
182,30158905.30883999
294,176404413.5252285
319,0.0
629,43817787.85843718
682,447246722.51129
695,4467332.576596442
709,563049596.8367747
733,563049596.8367747
760,0.0
785,0.0
798,0.0
2,4, 1, 4, 0,10, 0.00,60.00,Thursday
9,210151630.2838679
45,123775759.60884
182,38775735.39708
294,109550375.04865408
319,0.0
629,43817787.85843718
682,373124250.0685078
695,3782347.419510698
709,469637772.98580989
733,469637772.98580989
760,0.0
785,0.0
798,0.0
2,4, 1, 4, 0,11, 0.00,60.00,Thursday
9,209748942.99078436
45,123775759.60884
182,38775735.39708
294,87776927.74180748
319,0.0
629,43817787.85843718
682,348596344.83305248
695,3379660.126427131
709,439009646.28430536
733,439009646.28430536
760,0.0
785,0.0
798,0.0
2,4, 1, 4, 0,12, 0.00,60.00,Thursday
9,209404606.0335035
45,123775759.60884
182,38775735.39708
294,58870413.87678314
319,0.0
629,43817787.85843718
682,315082536.491555
695,3035323.169146274
709,396793726.3442467
733,396793726.3442467
760,0.0
785,0.0
798,0.0
2,4, 1, 4, 0,13, 0.00,60.00,Thursday
9,209191585.8857797
45,123775759.60884
182,38775735.39708
294,45953567.25179445
319,0.0
629,43817787.85843718
682,294930078.7507755
695,2822303.0214224767
709,371445500.2300776
733,371445500.2300776
760,0.0
785,0.0
798,0.0
2,4, 1, 4, 0,14, 0.00,60.00,Thursday
9,209119907.0213797
45,123775759.60884
182,38775735.39708
294,38107170.63143207
319,1480528.3895830156
629,43817787.85843718
682,282806445.4019723
695,2750624.157022485
709,356120174.13163968
733,356120174.13163968
760,0.0
785,0.0
798,0.0
2,4, 1, 4, 0,15, 0.00,60.00,Thursday
9,209153304.30193324
45,123775759.60884
182,38775735.39708
294,36061798.56252185
319,5669399.979067968
629,43817787.85843718
682,280530241.5921111
695,2784021.437576062
709,353191339.4092892
733,353191339.4092892
760,0.0
785,0.0
798,0.0
2,4, 1, 4, 0,16, 0.00,60.00,Thursday
9,209217958.24823065
45,123775759.60884
182,38775735.39708
294,33791276.85384916
319,14818679.599199743
629,43817787.85843718
682,271905768.1618514
695,2848675.3838734214
709,342105301.83963039
733,342105301.83963039
760,0.0
785,0.0
798,0.0
2,4, 1, 4, 0,17, 0.00,60.00,Thursday
9,229363738.3871393
45,123775759.60884
182,38775735.39708
294,36606072.238575208
319,10264586.96759807
629,43817787.85843718
682,292370097.750647
695,3156055.5227820819
709,367768697.0696726
733,367768697.0696726
760,19838400.0
785,0.0
798,0.0
2,4, 1, 4, 0,18, 0.00,60.00,Thursday
9,239661757.27316828
45,123775759.60884
182,38775735.39708
294,44130243.96218619
319,0.0
629,43817787.85843718
682,328043205.87120118
695,3534874.4088110767
709,412725788.84440448
733,412725788.84440448
760,29757600.0
785,0.0
798,0.0
2,4, 1, 4, 0,19, 0.00,60.00,Thursday
9,194369842.48751626
45,82517173.07255998
182,34467320.35296
294,61762060.76814294
319,0.0
629,43817787.85843718
682,360272709.1606355
695,3809961.2035590598
709,453373613.11465719
733,453373613.11465719
760,29757600.0
785,0.0
798,0.0
2,4, 1, 4, 0,20, 0.00,60.00,Thursday
9,194617390.6312699
45,82517173.07255998
182,34467320.35296
294,84016058.62890888
319,0.0
629,43817787.85843718
682,388607914.23576828
695,4057509.347312682
709,489151405.56389799
733,489151405.56389799
760,29757600.0
785,0.0
798,0.0
2,4, 1, 4, 0,21, 0.00,60.00,Thursday
9,176599197.32486368
45,68764310.8938
182,30158905.30883999
294,94042311.8590849
319,0.0
629,43817787.85843718
682,393993714.02152588
695,4100593.2637864125
709,495918119.3509458
733,495918119.3509458
760,29757600.0
785,0.0
798,0.0
2,4, 1, 4, 0,22, 0.00,60.00,Thursday
9,74496984.534
45,27505724.357519997
182,17233660.17648
294,0.0
319,0.0
629,0.0
682,0.0
695,0.0
709,0.0
733,0.0
760,29757600.0
785,0.0
798,0.0
2,4, 1, 4, 0,23, 0.00,60.00,Thursday
9,45264746.79498687
45,6876431.089379999
182,8616830.08824
294,17736.2446104813
319,0.0
629,6453.540498575637
682,7432.076868284512
695,7432.076868284512
709,0.0
733,0.0
760,29757600.0
785,0.0
798,0.0
2,4, 1, 4, 0,24, 0.00,60.00,Thursday
9,46032967.18331255
45,6876431.089379999
182,8616830.08824
294,9431157.487572637
319,0.0
629,397549.1346231474
682,9085086.526331932
695,384556.87106939827
709,10875662.069078168
733,10875662.069078168
760,29757600.0
785,0.0
798,0.0
2,5, 1, 5, 0, 1, 0.00,60.00,Friday
9,46608640.67867545
45,6876431.089379999
182,8616830.08824
294,16052321.318403643
319,0.0
629,639827.9017788905
682,15512936.023807
695,717951.5992765605
709,18493730.53066305
733,18493730.53066305
760,29757600.0
785,0.0
798,0.0
2,5, 1, 5, 0, 2, 0.00,60.00,Friday
9,47087427.39499153
45,6876431.089379999
182,8616830.08824
294,24678340.292635174
319,0.0
629,971043.3531970204
682,23844853.24000199
695,865522.8641745152
709,28724162.969784347
733,28724162.969784347
760,29757600.0
785,0.0
798,0.0
2,5, 1, 5, 0, 3, 0.00,60.00,Friday
9,47354378.7452126
45,6876431.089379999
182,8616830.08824
294,28958476.89811799
319,0.0
629,1125427.1232317137
682,28016081.97033996
695,978090.4443608888
709,33797489.40747384
733,33797489.40747384
760,29757600.0
785,0.0
798,0.0
2,5, 1, 5, 0, 4, 0.00,60.00,Friday
9,47799520.91812891
45,6876431.089379999
182,8616830.08824
294,36095510.363629449
319,0.0
629,1403416.3083474183
682,34887286.01729459
695,1145243.432161492
709,42177553.23141637
733,42177553.23141637
760,29757600.0
785,0.0
798,0.0
2,5, 1, 5, 0, 5, 0.00,60.00,Friday
9,48447168.611072648
45,6876431.089379999
182,8616830.08824
294,46359579.99902886
319,0.0
629,1781822.7367721252
682,44924190.77723515
695,1414484.6966805177
709,54387132.600693289
733,54387132.600693289
760,29757600.0
785,0.0
798,0.0
2,5, 1, 5, 0, 6, 0.00,60.00,Friday
9,49121588.66067091
45,6876431.089379999
182,8616830.08824
294,56214013.02966346
319,0.0
629,2165890.7824375086
682,54475117.79960131
695,1704836.7006133947
709,65962851.3737349
733,65962851.3737349
760,29757600.0
785,0.0
798,0.0
2,5, 1, 5, 0, 7, 0.00,60.00,Friday
9,98096609.45482254
45,6876431.089379999
182,8616830.08824
294,445754227.9790473
319,0.0
629,43817787.85843718
682,877031080.724445
695,9027960.418765359
709,1103515024.4821163
733,1103515024.4821163
760,29757600.0
785,0.0
798,0.0
2,5, 1, 5, 0, 8, 0.00,60.00,Friday
9,105711126.41723469
45,27505724.357519997
182,17233660.17648
294,303228134.4388201
319,0.0
629,43817787.85843718
682,732131734.571708
695,7234754.0247975219
709,921900016.7980584
733,921900016.7980584
760,9919200.0
785,0.0
798,0.0
2,5, 1, 5, 0, 9, 0.00,60.00,Friday
9,148144735.8413582
45,68764310.8938
182,30158905.30883999
294,231832241.21458987
319,0.0
629,43817787.85843718
682,654714103.9810673
695,5403731.780281014
709,826074611.4807389
733,826074611.4807389
760,0.0
785,0.0
798,0.0
2,5, 1, 5, 0,10, 0.00,60.00,Friday
9,209876873.5125838
45,123775759.60884
182,38775735.39708
294,151604456.44270826
319,0.0
629,43817787.85843718
682,557326522.3503171
695,3507590.6482266208
709,704759985.86966
733,704759985.86966
760,0.0
785,0.0
798,0.0
2,5, 1, 5, 0,11, 0.00,60.00,Friday
9,208413987.1099862
45,123775759.60884
182,38775735.39708
294,117647695.80788017
319,0.0
629,43817787.85843718
682,493229204.62603929
695,2044704.2456289759
709,625200525.964
733,625200525.964
760,0.0
785,0.0
798,0.0
2,5, 1, 5, 0,12, 0.00,60.00,Friday
9,207431415.2762241
45,123775759.60884
182,38775735.39708
294,81970800.94883883
319,2769145.267850189
629,43817787.85843718
682,429593575.5481039
695,1062132.4118669094
709,545504479.1435489
733,545504479.1435489
760,0.0
785,0.0
798,0.0
2,5, 1, 5, 0,13, 0.00,60.00,Friday
9,206996159.13946153
45,123775759.60884
182,38775735.39708
294,64758597.78781165
319,5093726.26507945
629,43817787.85843718
682,392649821.17692038
695,626876.2751043143
709,499080309.87633588
733,499080309.87633588
760,0.0
785,0.0
798,0.0
2,5, 1, 5, 0,14, 0.00,60.00,Friday
9,206963810.71858705
45,123775759.60884
182,38775735.39708
294,51493899.674761738
319,5791463.062744189
629,43817787.85843718
682,364046013.83641836
695,594527.854229833
709,462696868.90376928
733,462696868.90376928
760,0.0
785,0.0
798,0.0
2,5, 1, 5, 0,15, 0.00,60.00,Friday
9,207276573.06828577
45,123775759.60884
182,38775735.39708
294,40543475.90875946
319,5254985.478554339
629,43817787.85843718
682,334310656.1782699
695,907290.2039285489
709,424377380.09019717